s 2.000000000 _0_ AGT  --- 0 cbr 1000 [0 0 0 0] ------- [0:0 1:0 32 0] [0] 0 0
r 2.000000000 _0_ RTR  --- 0 cbr 1000 [0 0 0 0] ------- [0:0 1:0 32 0] [0] 0 0
s 2.000000000 _0_ AGT  --- 1 cbr 24 [0 0 0 0] ------- [0:0 1:0 32 0] [1] 0 0
r 2.000000000 _0_ RTR  --- 1 cbr 24 [0 0 0 0] ------- [0:0 1:0 32 0] [1] 0 0
v 2 eval {set sim_annotation {Sender sends the data to the receiver through the selected router which is attacker}}
s 2.000000000 _0_ RTR  --- 0 AODV 48 [0 0 0 0] ------- [0:255 -1:255 30 0] [0x2 1 1 [1 0] [0 4]] (REQUEST)
r 2.001408297 _1_ RTR  --- 0 AODV 48 [0 ffffffff 0 800] ------- [0:255 -1:255 30 0] [0x2 1 1 [1 0] [0 4]] (REQUEST)
s 2.001408297 _1_ RTR  --- 0 AODV 44 [0 0 0 0] ------- [1:255 0:255 30 0] [0x4 1 [1 4] 10.000000] (REPLY)
r 2.001408318 _10_ RTR  --- 0 AODV 48 [0 ffffffff 0 800] ------- [0:255 -1:255 30 0] [0x2 1 1 [1 0] [0 4]] (REQUEST)
r 2.001408346 _3_ RTR  --- 0 AODV 48 [0 ffffffff 0 800] ------- [0:255 -1:255 30 0] [0x2 1 1 [1 0] [0 4]] (REQUEST)
r 2.001408455 _6_ RTR  --- 0 AODV 48 [0 ffffffff 0 800] ------- [0:255 -1:255 30 0] [0x2 1 1 [1 0] [0 4]] (REQUEST)
r 2.001408507 _11_ RTR  --- 0 AODV 48 [0 ffffffff 0 800] ------- [0:255 -1:255 30 0] [0x2 1 1 [1 0] [0 4]] (REQUEST)
r 2.001408545 _2_ RTR  --- 0 AODV 48 [0 ffffffff 0 800] ------- [0:255 -1:255 30 0] [0x2 1 1 [1 0] [0 4]] (REQUEST)
r 2.001408585 _9_ RTR  --- 0 AODV 48 [0 ffffffff 0 800] ------- [0:255 -1:255 30 0] [0x2 1 1 [1 0] [0 4]] (REQUEST)
r 2.001408592 _5_ RTR  --- 0 AODV 48 [0 ffffffff 0 800] ------- [0:255 -1:255 30 0] [0x2 1 1 [1 0] [0 4]] (REQUEST)
r 2.001408677 _13_ RTR  --- 0 AODV 48 [0 ffffffff 0 800] ------- [0:255 -1:255 30 0] [0x2 1 1 [1 0] [0 4]] (REQUEST)
r 2.001408698 _4_ RTR  --- 0 AODV 48 [0 ffffffff 0 800] ------- [0:255 -1:255 30 0] [0x2 1 1 [1 0] [0 4]] (REQUEST)
s 2.001550365 _10_ RTR  --- 0 AODV 48 [0 ffffffff 0 800] ------- [10:255 -1:255 29 0] [0x2 2 1 [1 0] [0 4]] (REQUEST)
s 2.002289572 _3_ RTR  --- 0 AODV 48 [0 ffffffff 0 800] ------- [3:255 -1:255 29 0] [0x2 2 1 [1 0] [0 4]] (REQUEST)
r 2.002538572 _11_ RTR  --- 0 AODV 48 [0 ffffffff a 800] ------- [10:255 -1:255 29 0] [0x2 2 1 [1 0] [0 4]] (REQUEST)
r 2.002538647 _5_ RTR  --- 0 AODV 48 [0 ffffffff a 800] ------- [10:255 -1:255 29 0] [0x2 2 1 [1 0] [0 4]] (REQUEST)
r 2.002538683 _0_ RTR  --- 0 AODV 48 [0 ffffffff a 800] ------- [10:255 -1:255 29 0] [0x2 2 1 [1 0] [0 4]] (REQUEST)
r 2.002538726 _13_ RTR  --- 0 AODV 48 [0 ffffffff a 800] ------- [10:255 -1:255 29 0] [0x2 2 1 [1 0] [0 4]] (REQUEST)
r 2.002538849 _3_ RTR  --- 0 AODV 48 [0 ffffffff a 800] ------- [10:255 -1:255 29 0] [0x2 2 1 [1 0] [0 4]] (REQUEST)
r 2.002538919 _1_ RTR  --- 0 AODV 48 [0 ffffffff a 800] ------- [10:255 -1:255 29 0] [0x2 2 1 [1 0] [0 4]] (REQUEST)
r 2.002538954 _9_ RTR  --- 0 AODV 48 [0 ffffffff a 800] ------- [10:255 -1:255 29 0] [0x2 2 1 [1 0] [0 4]] (REQUEST)
r 2.002538985 _6_ RTR  --- 0 AODV 48 [0 ffffffff a 800] ------- [10:255 -1:255 29 0] [0x2 2 1 [1 0] [0 4]] (REQUEST)
r 2.002538987 _12_ RTR  --- 0 AODV 48 [0 ffffffff a 800] ------- [10:255 -1:255 29 0] [0x2 2 1 [1 0] [0 4]] (REQUEST)
r 2.002539037 _7_ RTR  --- 0 AODV 48 [0 ffffffff a 800] ------- [10:255 -1:255 29 0] [0x2 2 1 [1 0] [0 4]] (REQUEST)
r 2.002539105 _2_ RTR  --- 0 AODV 48 [0 ffffffff a 800] ------- [10:255 -1:255 29 0] [0x2 2 1 [1 0] [0 4]] (REQUEST)
r 2.002539191 _8_ RTR  --- 0 AODV 48 [0 ffffffff a 800] ------- [10:255 -1:255 29 0] [0x2 2 1 [1 0] [0 4]] (REQUEST)
s 2.003677069 _12_ RTR  --- 0 AODV 48 [0 ffffffff a 800] ------- [12:255 -1:255 28 0] [0x2 3 1 [1 0] [0 4]] (REQUEST)
s 2.003754609 _5_ RTR  --- 0 AODV 48 [0 ffffffff 0 800] ------- [5:255 -1:255 29 0] [0x2 2 1 [1 0] [0 4]] (REQUEST)
s 2.004499488 _4_ RTR  --- 0 AODV 48 [0 ffffffff 0 800] ------- [4:255 -1:255 29 0] [0x2 2 1 [1 0] [0 4]] (REQUEST)
s 2.004538162 _2_ RTR  --- 0 AODV 48 [0 ffffffff 0 800] ------- [2:255 -1:255 29 0] [0x2 2 1 [1 0] [0 4]] (REQUEST)
s 2.005820189 _6_ RTR  --- 0 AODV 48 [0 ffffffff 0 800] ------- [6:255 -1:255 29 0] [0x2 2 1 [1 0] [0 4]] (REQUEST)
r 2.006309497 _6_ RTR  --- 0 AODV 48 [0 ffffffff 2 800] ------- [2:255 -1:255 29 0] [0x2 2 1 [1 0] [0 4]] (REQUEST)
r 2.006309635 _1_ RTR  --- 0 AODV 48 [0 ffffffff 2 800] ------- [2:255 -1:255 29 0] [0x2 2 1 [1 0] [0 4]] (REQUEST)
r 2.006309915 _0_ RTR  --- 0 AODV 48 [0 ffffffff 2 800] ------- [2:255 -1:255 29 0] [0x2 2 1 [1 0] [0 4]] (REQUEST)
r 2.006310067 _4_ RTR  --- 0 AODV 48 [0 ffffffff 2 800] ------- [2:255 -1:255 29 0] [0x2 2 1 [1 0] [0 4]] (REQUEST)
r 2.006310110 _10_ RTR  --- 0 AODV 48 [0 ffffffff 2 800] ------- [2:255 -1:255 29 0] [0x2 2 1 [1 0] [0 4]] (REQUEST)
s 2.006775758 _8_ RTR  --- 0 AODV 48 [0 ffffffff a 800] ------- [8:255 -1:255 28 0] [0x2 3 1 [1 0] [0 4]] (REQUEST)
s 2.007797329 _13_ RTR  --- 0 AODV 48 [0 ffffffff 0 800] ------- [13:255 -1:255 29 0] [0x2 2 1 [1 0] [0 4]] (REQUEST)
r 2.007972524 _0_ RTR  --- 0 AODV 44 [13a 0 1 800] ------- [1:255 0:255 30 0] [0x4 1 [1 4] 10.000000] (REPLY)
s 2.007972524 _0_ RTR  --- 0 cbr 1020 [0 0 0 0] ------- [0:0 1:0 30 1] [0] 0 0
r 2.009265797 _1_ RTR  --- 0 AODV 48 [0 ffffffff 4 800] ------- [4:255 -1:255 29 0] [0x2 2 1 [1 0] [0 4]] (REQUEST)
r 2.009265919 _2_ RTR  --- 0 AODV 48 [0 ffffffff 4 800] ------- [4:255 -1:255 29 0] [0x2 2 1 [1 0] [0 4]] (REQUEST)
r 2.009265920 _0_ RTR  --- 0 AODV 48 [0 ffffffff 4 800] ------- [4:255 -1:255 29 0] [0x2 2 1 [1 0] [0 4]] (REQUEST)
r 2.009265966 _6_ RTR  --- 0 AODV 48 [0 ffffffff 4 800] ------- [4:255 -1:255 29 0] [0x2 2 1 [1 0] [0 4]] (REQUEST)
r 2.009265968 _3_ RTR  --- 0 AODV 48 [0 ffffffff 4 800] ------- [4:255 -1:255 29 0] [0x2 2 1 [1 0] [0 4]] (REQUEST)
s 2.009400061 _11_ RTR  --- 0 AODV 48 [0 ffffffff 0 800] ------- [11:255 -1:255 29 0] [0x2 2 1 [1 0] [0 4]] (REQUEST)
s 2.009573346 _9_ RTR  --- 0 AODV 48 [0 ffffffff 0 800] ------- [9:255 -1:255 29 0] [0x2 2 1 [1 0] [0 4]] (REQUEST)
s 2.011136314 _7_ RTR  --- 0 AODV 48 [0 ffffffff a 800] ------- [7:255 -1:255 28 0] [0x2 3 1 [1 0] [0 4]] (REQUEST)
s 2.017972524 _0_ RTR  --- 1 cbr 44 [0 0 0 0] ------- [0:0 1:0 30 1] [1] 0 0
r 2.018636809 _1_ AGT  --- 0 cbr 1020 [13a 1 0 800] ------- [0:0 1:0 30 1] [0] 1 0
r 2.019889660 _5_ RTR  --- 0 AODV 48 [0 ffffffff b 800] ------- [11:255 -1:255 29 0] [0x2 2 1 [1 0] [0 4]] (REQUEST)
r 2.019889689 _9_ RTR  --- 0 AODV 48 [0 ffffffff 3 800] ------- [3:255 -1:255 29 0] [0x2 2 1 [1 0] [0 4]] (REQUEST)
r 2.019889777 _10_ RTR  --- 0 AODV 48 [0 ffffffff b 800] ------- [11:255 -1:255 29 0] [0x2 2 1 [1 0] [0 4]] (REQUEST)
r 2.019889814 _13_ RTR  --- 0 AODV 48 [0 ffffffff b 800] ------- [11:255 -1:255 29 0] [0x2 2 1 [1 0] [0 4]] (REQUEST)
r 2.019889997 _12_ RTR  --- 0 AODV 48 [0 ffffffff b 800] ------- [11:255 -1:255 29 0] [0x2 2 1 [1 0] [0 4]] (REQUEST)
r 2.019890035 _7_ RTR  --- 0 AODV 48 [0 ffffffff b 800] ------- [11:255 -1:255 29 0] [0x2 2 1 [1 0] [0 4]] (REQUEST)
r 2.021896966 _1_ AGT  --- 1 cbr 44 [13a 1 0 800] ------- [0:0 1:0 30 1] [1] 1 0
r 2.023189310 _2_ RTR  --- 0 AODV 48 [0 ffffffff 6 800] ------- [6:255 -1:255 29 0] [0x2 2 1 [1 0] [0 4]] (REQUEST)
r 2.023189401 _1_ RTR  --- 0 AODV 48 [0 ffffffff 6 800] ------- [6:255 -1:255 29 0] [0x2 2 1 [1 0] [0 4]] (REQUEST)
r 2.023189639 _0_ RTR  --- 0 AODV 48 [0 ffffffff 6 800] ------- [6:255 -1:255 29 0] [0x2 2 1 [1 0] [0 4]] (REQUEST)
r 2.023189804 _10_ RTR  --- 0 AODV 48 [0 ffffffff 6 800] ------- [6:255 -1:255 29 0] [0x2 2 1 [1 0] [0 4]] (REQUEST)
r 2.023189928 _4_ RTR  --- 0 AODV 48 [0 ffffffff 6 800] ------- [6:255 -1:255 29 0] [0x2 2 1 [1 0] [0 4]] (REQUEST)
r 2.023189974 _3_ RTR  --- 0 AODV 48 [0 ffffffff 6 800] ------- [6:255 -1:255 29 0] [0x2 2 1 [1 0] [0 4]] (REQUEST)
r 2.023190007 _11_ RTR  --- 0 AODV 48 [0 ffffffff 6 800] ------- [6:255 -1:255 29 0] [0x2 2 1 [1 0] [0 4]] (REQUEST)
r 2.024532158 _11_ RTR  --- 0 AODV 48 [0 ffffffff 5 800] ------- [5:255 -1:255 29 0] [0x2 2 1 [1 0] [0 4]] (REQUEST)
r 2.024532245 _13_ RTR  --- 0 AODV 48 [0 ffffffff 5 800] ------- [5:255 -1:255 29 0] [0x2 2 1 [1 0] [0 4]] (REQUEST)
r 2.024532350 _10_ RTR  --- 0 AODV 48 [0 ffffffff 5 800] ------- [5:255 -1:255 29 0] [0x2 2 1 [1 0] [0 4]] (REQUEST)
r 2.024532409 _12_ RTR  --- 0 AODV 48 [0 ffffffff 5 800] ------- [5:255 -1:255 29 0] [0x2 2 1 [1 0] [0 4]] (REQUEST)
r 2.024532468 _7_ RTR  --- 0 AODV 48 [0 ffffffff 5 800] ------- [5:255 -1:255 29 0] [0x2 2 1 [1 0] [0 4]] (REQUEST)
r 2.024532660 _0_ RTR  --- 0 AODV 48 [0 ffffffff 5 800] ------- [5:255 -1:255 29 0] [0x2 2 1 [1 0] [0 4]] (REQUEST)
r 2.024532705 _9_ RTR  --- 0 AODV 48 [0 ffffffff 5 800] ------- [5:255 -1:255 29 0] [0x2 2 1 [1 0] [0 4]] (REQUEST)
r 2.024532721 _3_ RTR  --- 0 AODV 48 [0 ffffffff 5 800] ------- [5:255 -1:255 29 0] [0x2 2 1 [1 0] [0 4]] (REQUEST)
r 2.024532887 _8_ RTR  --- 0 AODV 48 [0 ffffffff 5 800] ------- [5:255 -1:255 29 0] [0x2 2 1 [1 0] [0 4]] (REQUEST)
r 2.025550959 _8_ RTR  --- 0 AODV 48 [0 ffffffff 9 800] ------- [9:255 -1:255 29 0] [0x2 2 1 [1 0] [0 4]] (REQUEST)
r 2.025550985 _3_ RTR  --- 0 AODV 48 [0 ffffffff 9 800] ------- [9:255 -1:255 29 0] [0x2 2 1 [1 0] [0 4]] (REQUEST)
r 2.025551274 _11_ RTR  --- 0 AODV 48 [0 ffffffff 9 800] ------- [9:255 -1:255 29 0] [0x2 2 1 [1 0] [0 4]] (REQUEST)
r 2.025551290 _0_ RTR  --- 0 AODV 48 [0 ffffffff 9 800] ------- [9:255 -1:255 29 0] [0x2 2 1 [1 0] [0 4]] (REQUEST)
r 2.025551293 _10_ RTR  --- 0 AODV 48 [0 ffffffff 9 800] ------- [9:255 -1:255 29 0] [0x2 2 1 [1 0] [0 4]] (REQUEST)
r 2.025551341 _5_ RTR  --- 0 AODV 48 [0 ffffffff 9 800] ------- [9:255 -1:255 29 0] [0x2 2 1 [1 0] [0 4]] (REQUEST)
r 2.025551469 _7_ RTR  --- 0 AODV 48 [0 ffffffff 9 800] ------- [9:255 -1:255 29 0] [0x2 2 1 [1 0] [0 4]] (REQUEST)
r 2.025551516 _13_ RTR  --- 0 AODV 48 [0 ffffffff 9 800] ------- [9:255 -1:255 29 0] [0x2 2 1 [1 0] [0 4]] (REQUEST)
r 2.026509666 _12_ RTR  --- 0 AODV 48 [0 ffffffff 7 800] ------- [7:255 -1:255 28 0] [0x2 3 1 [1 0] [0 4]] (REQUEST)
r 2.026509869 _5_ RTR  --- 0 AODV 48 [0 ffffffff 7 800] ------- [7:255 -1:255 28 0] [0x2 3 1 [1 0] [0 4]] (REQUEST)
r 2.026509933 _13_ RTR  --- 0 AODV 48 [0 ffffffff 7 800] ------- [7:255 -1:255 28 0] [0x2 3 1 [1 0] [0 4]] (REQUEST)
r 2.026509934 _11_ RTR  --- 0 AODV 48 [0 ffffffff 7 800] ------- [7:255 -1:255 28 0] [0x2 3 1 [1 0] [0 4]] (REQUEST)
r 2.026510141 _10_ RTR  --- 0 AODV 48 [0 ffffffff 7 800] ------- [7:255 -1:255 28 0] [0x2 3 1 [1 0] [0 4]] (REQUEST)
r 2.026510233 _9_ RTR  --- 0 AODV 48 [0 ffffffff 7 800] ------- [7:255 -1:255 28 0] [0x2 3 1 [1 0] [0 4]] (REQUEST)
r 2.027427863 _7_ RTR  --- 0 AODV 48 [0 ffffffff c 800] ------- [12:255 -1:255 28 0] [0x2 3 1 [1 0] [0 4]] (REQUEST)
r 2.028911183 _9_ RTR  --- 0 AODV 48 [0 ffffffff 8 800] ------- [8:255 -1:255 28 0] [0x2 3 1 [1 0] [0 4]] (REQUEST)
r 2.028911446 _3_ RTR  --- 0 AODV 48 [0 ffffffff 8 800] ------- [8:255 -1:255 28 0] [0x2 3 1 [1 0] [0 4]] (REQUEST)
r 2.028911698 _11_ RTR  --- 0 AODV 48 [0 ffffffff 8 800] ------- [8:255 -1:255 28 0] [0x2 3 1 [1 0] [0 4]] (REQUEST)
r 2.028911748 _5_ RTR  --- 0 AODV 48 [0 ffffffff 8 800] ------- [8:255 -1:255 28 0] [0x2 3 1 [1 0] [0 4]] (REQUEST)
r 2.028911754 _10_ RTR  --- 0 AODV 48 [0 ffffffff 8 800] ------- [8:255 -1:255 28 0] [0x2 3 1 [1 0] [0 4]] (REQUEST)
v 2.1000000000000001 eval {set sim_annotation {Attacker 3 and 8 forms wormhole}}
s 2.100000000 _0_ AGT  --- 2 cbr 1000 [0 0 0 0] ------- [0:0 1:0 32 0] [2] 0 0
r 2.100000000 _0_ RTR  --- 2 cbr 1000 [0 0 0 0] ------- [0:0 1:0 32 0] [2] 0 0
s 2.100000000 _0_ AGT  --- 3 cbr 24 [0 0 0 0] ------- [0:0 1:0 32 0] [3] 0 0
r 2.100000000 _0_ RTR  --- 3 cbr 24 [0 0 0 0] ------- [0:0 1:0 32 0] [3] 0 0
s 2.100000000 _0_ RTR  --- 2 cbr 1020 [0 0 0 0] ------- [0:0 1:0 30 1] [2] 0 0
s 2.100000000 _0_ RTR  --- 3 cbr 44 [0 0 0 0] ------- [0:0 1:0 30 1] [3] 0 0
r 2.109740890 _1_ AGT  --- 2 cbr 1020 [13a 1 0 800] ------- [0:0 1:0 30 1] [2] 1 0
r 2.112098076 _1_ AGT  --- 3 cbr 44 [13a 1 0 800] ------- [0:0 1:0 30 1] [3] 1 0
s 2.200000000 _0_ AGT  --- 4 cbr 1000 [0 0 0 0] ------- [0:0 1:0 32 0] [4] 0 0
r 2.200000000 _0_ RTR  --- 4 cbr 1000 [0 0 0 0] ------- [0:0 1:0 32 0] [4] 0 0
s 2.200000000 _0_ AGT  --- 5 cbr 24 [0 0 0 0] ------- [0:0 1:0 32 0] [5] 0 0
r 2.200000000 _0_ RTR  --- 5 cbr 24 [0 0 0 0] ------- [0:0 1:0 32 0] [5] 0 0
s 2.200000000 _0_ RTR  --- 4 cbr 1020 [0 0 0 0] ------- [0:0 1:0 30 1] [4] 0 0
s 2.200000000 _0_ RTR  --- 5 cbr 44 [0 0 0 0] ------- [0:0 1:0 30 1] [5] 0 0
r 2.209580890 _1_ AGT  --- 4 cbr 1020 [13a 1 0 800] ------- [0:0 1:0 30 1] [4] 1 0
r 2.211718076 _1_ AGT  --- 5 cbr 44 [13a 1 0 800] ------- [0:0 1:0 30 1] [5] 1 0
s 2.300000000 _0_ AGT  --- 6 cbr 1000 [0 0 0 0] ------- [0:0 1:0 32 0] [6] 0 0
r 2.300000000 _0_ RTR  --- 6 cbr 1000 [0 0 0 0] ------- [0:0 1:0 32 0] [6] 0 0
s 2.300000000 _0_ AGT  --- 7 cbr 24 [0 0 0 0] ------- [0:0 1:0 32 0] [7] 0 0
r 2.300000000 _0_ RTR  --- 7 cbr 24 [0 0 0 0] ------- [0:0 1:0 32 0] [7] 0 0
s 2.300000000 _0_ RTR  --- 6 cbr 1020 [0 0 0 0] ------- [0:0 1:0 30 1] [6] 0 0
s 2.300000000 _0_ RTR  --- 7 cbr 44 [0 0 0 0] ------- [0:0 1:0 30 1] [7] 0 0
r 2.309400890 _1_ AGT  --- 6 cbr 1020 [13a 1 0 800] ------- [0:0 1:0 30 1] [6] 1 0
r 2.311478076 _1_ AGT  --- 7 cbr 44 [13a 1 0 800] ------- [0:0 1:0 30 1] [7] 1 0
s 2.400000000 _0_ AGT  --- 8 cbr 1000 [0 0 0 0] ------- [0:0 1:0 32 0] [8] 0 0
r 2.400000000 _0_ RTR  --- 8 cbr 1000 [0 0 0 0] ------- [0:0 1:0 32 0] [8] 0 0
s 2.400000000 _0_ AGT  --- 9 cbr 24 [0 0 0 0] ------- [0:0 1:0 32 0] [9] 0 0
r 2.400000000 _0_ RTR  --- 9 cbr 24 [0 0 0 0] ------- [0:0 1:0 32 0] [9] 0 0
s 2.400000000 _0_ RTR  --- 8 cbr 1020 [0 0 0 0] ------- [0:0 1:0 30 1] [8] 0 0
s 2.400000000 _0_ RTR  --- 9 cbr 44 [0 0 0 0] ------- [0:0 1:0 30 1] [9] 0 0
r 2.409560890 _1_ AGT  --- 8 cbr 1020 [13a 1 0 800] ------- [0:0 1:0 30 1] [8] 1 0
r 2.411638076 _1_ AGT  --- 9 cbr 44 [13a 1 0 800] ------- [0:0 1:0 30 1] [9] 1 0
s 2.500000000 _0_ AGT  --- 10 cbr 1000 [0 0 0 0] ------- [0:0 1:0 32 0] [10] 0 0
r 2.500000000 _0_ RTR  --- 10 cbr 1000 [0 0 0 0] ------- [0:0 1:0 32 0] [10] 0 0
s 2.500000000 _0_ AGT  --- 11 cbr 24 [0 0 0 0] ------- [0:0 1:0 32 0] [11] 0 0
r 2.500000000 _0_ RTR  --- 11 cbr 24 [0 0 0 0] ------- [0:0 1:0 32 0] [11] 0 0
s 2.500000000 _0_ RTR  --- 10 cbr 1020 [0 0 0 0] ------- [0:0 1:0 30 1] [10] 0 0
s 2.500000000 _0_ RTR  --- 11 cbr 44 [0 0 0 0] ------- [0:0 1:0 30 1] [11] 0 0
r 2.509700890 _1_ AGT  --- 10 cbr 1020 [13a 1 0 800] ------- [0:0 1:0 30 1] [10] 1 0
r 2.511558076 _1_ AGT  --- 11 cbr 44 [13a 1 0 800] ------- [0:0 1:0 30 1] [11] 1 0
s 2.600000000 _0_ AGT  --- 12 cbr 1000 [0 0 0 0] ------- [0:0 1:0 32 0] [12] 0 0
r 2.600000000 _0_ RTR  --- 12 cbr 1000 [0 0 0 0] ------- [0:0 1:0 32 0] [12] 0 0
s 2.600000000 _0_ AGT  --- 13 cbr 24 [0 0 0 0] ------- [0:0 1:0 32 0] [13] 0 0
r 2.600000000 _0_ RTR  --- 13 cbr 24 [0 0 0 0] ------- [0:0 1:0 32 0] [13] 0 0
s 2.600000000 _0_ RTR  --- 12 cbr 1020 [0 0 0 0] ------- [0:0 1:0 30 1] [12] 0 0
s 2.600000000 _0_ RTR  --- 13 cbr 44 [0 0 0 0] ------- [0:0 1:0 30 1] [13] 0 0
r 2.609700890 _1_ AGT  --- 12 cbr 1020 [13a 1 0 800] ------- [0:0 1:0 30 1] [12] 1 0
r 2.611838076 _1_ AGT  --- 13 cbr 44 [13a 1 0 800] ------- [0:0 1:0 30 1] [13] 1 0
s 2.700000000 _0_ AGT  --- 14 cbr 1000 [0 0 0 0] ------- [0:0 1:0 32 0] [14] 0 0
r 2.700000000 _0_ RTR  --- 14 cbr 1000 [0 0 0 0] ------- [0:0 1:0 32 0] [14] 0 0
s 2.700000000 _0_ AGT  --- 15 cbr 24 [0 0 0 0] ------- [0:0 1:0 32 0] [15] 0 0
r 2.700000000 _0_ RTR  --- 15 cbr 24 [0 0 0 0] ------- [0:0 1:0 32 0] [15] 0 0
s 2.700000000 _0_ RTR  --- 14 cbr 1020 [0 0 0 0] ------- [0:0 1:0 30 1] [14] 0 0
s 2.700000000 _0_ RTR  --- 15 cbr 44 [0 0 0 0] ------- [0:0 1:0 30 1] [15] 0 0
r 2.709880890 _1_ AGT  --- 14 cbr 1020 [13a 1 0 800] ------- [0:0 1:0 30 1] [14] 1 0
r 2.711978076 _1_ AGT  --- 15 cbr 44 [13a 1 0 800] ------- [0:0 1:0 30 1] [15] 1 0
s 2.800000000 _0_ AGT  --- 16 cbr 1000 [0 0 0 0] ------- [0:0 1:0 32 0] [16] 0 0
r 2.800000000 _0_ RTR  --- 16 cbr 1000 [0 0 0 0] ------- [0:0 1:0 32 0] [16] 0 0
s 2.800000000 _0_ AGT  --- 17 cbr 24 [0 0 0 0] ------- [0:0 1:0 32 0] [17] 0 0
r 2.800000000 _0_ RTR  --- 17 cbr 24 [0 0 0 0] ------- [0:0 1:0 32 0] [17] 0 0
s 2.800000000 _0_ RTR  --- 16 cbr 1020 [0 0 0 0] ------- [0:0 1:0 30 1] [16] 0 0
s 2.800000000 _0_ RTR  --- 17 cbr 44 [0 0 0 0] ------- [0:0 1:0 30 1] [17] 0 0
r 2.809700890 _1_ AGT  --- 16 cbr 1020 [13a 1 0 800] ------- [0:0 1:0 30 1] [16] 1 0
r 2.811598076 _1_ AGT  --- 17 cbr 44 [13a 1 0 800] ------- [0:0 1:0 30 1] [17] 1 0
s 2.900000000 _0_ AGT  --- 18 cbr 1000 [0 0 0 0] ------- [0:0 1:0 32 0] [18] 0 0
r 2.900000000 _0_ RTR  --- 18 cbr 1000 [0 0 0 0] ------- [0:0 1:0 32 0] [18] 0 0
s 2.900000000 _0_ AGT  --- 19 cbr 24 [0 0 0 0] ------- [0:0 1:0 32 0] [19] 0 0
r 2.900000000 _0_ RTR  --- 19 cbr 24 [0 0 0 0] ------- [0:0 1:0 32 0] [19] 0 0
s 2.900000000 _0_ RTR  --- 18 cbr 1020 [0 0 0 0] ------- [0:0 1:0 30 1] [18] 0 0
s 2.900000000 _0_ RTR  --- 19 cbr 44 [0 0 0 0] ------- [0:0 1:0 30 1] [19] 0 0
r 2.909520890 _1_ AGT  --- 18 cbr 1020 [13a 1 0 800] ------- [0:0 1:0 30 1] [18] 1 0
r 2.911578076 _1_ AGT  --- 19 cbr 44 [13a 1 0 800] ------- [0:0 1:0 30 1] [19] 1 0
s 3.000000000 _1_ AGT  --- 20 cbr 1000 [0 0 0 0] ------- [1:1 3:0 32 0] [0] 0 0
r 3.000000000 _1_ RTR  --- 20 cbr 1000 [0 0 0 0] ------- [1:1 3:0 32 0] [0] 0 0
s 3.000000000 _1_ AGT  --- 21 cbr 24 [0 0 0 0] ------- [1:1 3:0 32 0] [1] 0 0
r 3.000000000 _1_ RTR  --- 21 cbr 24 [0 0 0 0] ------- [1:1 3:0 32 0] [1] 0 0
v 3 eval {set sim_annotation {Attacker forwards the data to Attacker 8 which does not forward the data to receiver}}
s 3.000000000 _1_ RTR  --- 0 AODV 48 [0 0 0 0] ------- [1:255 -1:255 30 0] [0x2 1 1 [3 0] [1 6]] (REQUEST)
s 3.000000000 _0_ AGT  --- 22 cbr 1000 [0 0 0 0] ------- [0:0 1:0 32 0] [20] 0 0
r 3.000000000 _0_ RTR  --- 22 cbr 1000 [0 0 0 0] ------- [0:0 1:0 32 0] [20] 0 0
s 3.000000000 _0_ AGT  --- 23 cbr 24 [0 0 0 0] ------- [0:0 1:0 32 0] [21] 0 0
r 3.000000000 _0_ RTR  --- 23 cbr 24 [0 0 0 0] ------- [0:0 1:0 32 0] [21] 0 0
s 3.000000000 _0_ RTR  --- 22 cbr 1020 [0 0 0 0] ------- [0:0 1:0 30 1] [20] 0 0
s 3.000000000 _0_ RTR  --- 23 cbr 44 [0 0 0 0] ------- [0:0 1:0 30 1] [21] 0 0
r 3.001028218 _6_ RTR  --- 0 AODV 48 [0 ffffffff 1 800] ------- [1:255 -1:255 30 0] [0x2 1 1 [3 0] [1 6]] (REQUEST)
r 3.001028265 _2_ RTR  --- 0 AODV 48 [0 ffffffff 1 800] ------- [1:255 -1:255 30 0] [0x2 1 1 [3 0] [1 6]] (REQUEST)
r 3.001028297 _0_ RTR  --- 0 AODV 48 [0 ffffffff 1 800] ------- [1:255 -1:255 30 0] [0x2 1 1 [3 0] [1 6]] (REQUEST)
r 3.001028554 _10_ RTR  --- 0 AODV 48 [0 ffffffff 1 800] ------- [1:255 -1:255 30 0] [0x2 1 1 [3 0] [1 6]] (REQUEST)
r 3.001028575 _4_ RTR  --- 0 AODV 48 [0 ffffffff 1 800] ------- [1:255 -1:255 30 0] [0x2 1 1 [3 0] [1 6]] (REQUEST)
r 3.001028600 _3_ RTR  --- 0 AODV 48 [0 ffffffff 1 800] ------- [1:255 -1:255 30 0] [0x2 1 1 [3 0] [1 6]] (REQUEST)
s 3.001028600 _3_ RTR  --- 0 AODV 44 [0 0 0 0] ------- [3:255 1:255 30 1] [0x4 1 [3 4] 10.000000] (REPLY)
r 3.001028761 _11_ RTR  --- 0 AODV 48 [0 ffffffff 1 800] ------- [1:255 -1:255 30 0] [0x2 1 1 [3 0] [1 6]] (REQUEST)
r 3.002742399 _1_ RTR  --- 0 AODV 44 [13a 1 3 800] ------- [3:255 1:255 30 1] [0x4 1 [3 4] 10.000000] (REPLY)
s 3.002742399 _1_ RTR  --- 20 cbr 1020 [0 0 0 0] ------- [1:1 3:0 30 3] [0] 0 0
s 3.006889679 _10_ RTR  --- 0 AODV 48 [0 ffffffff 1 800] ------- [10:255 -1:255 29 0] [0x2 2 1 [3 0] [1 6]] (REQUEST)
s 3.008308682 _2_ RTR  --- 0 AODV 48 [0 ffffffff 1 800] ------- [2:255 -1:255 29 0] [0x2 2 1 [3 0] [1 6]] (REQUEST)
s 3.008386980 _4_ RTR  --- 0 AODV 48 [0 ffffffff 1 800] ------- [4:255 -1:255 29 0] [0x2 2 1 [3 0] [1 6]] (REQUEST)
s 3.009048879 _11_ RTR  --- 0 AODV 48 [0 ffffffff 1 800] ------- [11:255 -1:255 29 0] [0x2 2 1 [3 0] [1 6]] (REQUEST)
s 3.009774760 _0_ RTR  --- 0 AODV 48 [0 ffffffff 1 800] ------- [0:255 -1:255 29 0] [0x2 2 1 [3 0] [1 6]] (REQUEST)
s 3.010056694 _6_ RTR  --- 0 AODV 48 [0 ffffffff 1 800] ------- [6:255 -1:255 29 0] [0x2 2 1 [3 0] [1 6]] (REQUEST)
r 3.012427585 _1_ AGT  --- 22 cbr 1020 [13a 1 0 800] ------- [0:0 1:0 30 1] [20] 1 0
s 3.012742399 _1_ RTR  --- 21 cbr 44 [0 0 0 0] ------- [1:1 3:0 30 3] [1] 0 0
D 3.012742399 _1_ IFQ  ARP 20 cbr 1020 [0 0 1 800] ------- [1:1 3:0 30 3] [0] 0 0
r 3.015415929 _2_ RTR  --- 0 AODV 48 [0 ffffffff 6 800] ------- [6:255 -1:255 29 0] [0x2 2 1 [3 0] [1 6]] (REQUEST)
r 3.015416020 _1_ RTR  --- 0 AODV 48 [0 ffffffff 6 800] ------- [6:255 -1:255 29 0] [0x2 2 1 [3 0] [1 6]] (REQUEST)
r 3.015416435 _5_ RTR  --- 0 AODV 48 [0 ffffffff b 800] ------- [11:255 -1:255 29 0] [0x2 2 1 [3 0] [1 6]] (REQUEST)
r 3.015416589 _13_ RTR  --- 0 AODV 48 [0 ffffffff b 800] ------- [11:255 -1:255 29 0] [0x2 2 1 [3 0] [1 6]] (REQUEST)
r 3.015416773 _12_ RTR  --- 0 AODV 48 [0 ffffffff b 800] ------- [11:255 -1:255 29 0] [0x2 2 1 [3 0] [1 6]] (REQUEST)
r 3.015416810 _7_ RTR  --- 0 AODV 48 [0 ffffffff b 800] ------- [11:255 -1:255 29 0] [0x2 2 1 [3 0] [1 6]] (REQUEST)
s 3.015744513 _13_ RTR  --- 0 AODV 48 [0 ffffffff b 800] ------- [13:255 -1:255 28 0] [0x2 3 1 [3 0] [1 6]] (REQUEST)
r 3.016719154 _1_ RTR  --- 0 AODV 48 [0 ffffffff 0 800] ------- [0:255 -1:255 29 0] [0x2 2 1 [3 0] [1 6]] (REQUEST)
r 3.016719176 _10_ RTR  --- 0 AODV 48 [0 ffffffff 0 800] ------- [0:255 -1:255 29 0] [0x2 2 1 [3 0] [1 6]] (REQUEST)
r 3.016719203 _3_ RTR  --- 0 AODV 48 [0 ffffffff 0 800] ------- [0:255 -1:255 29 0] [0x2 2 1 [3 0] [1 6]] (REQUEST)
r 3.016719312 _6_ RTR  --- 0 AODV 48 [0 ffffffff 0 800] ------- [0:255 -1:255 29 0] [0x2 2 1 [3 0] [1 6]] (REQUEST)
r 3.016719364 _11_ RTR  --- 0 AODV 48 [0 ffffffff 0 800] ------- [0:255 -1:255 29 0] [0x2 2 1 [3 0] [1 6]] (REQUEST)
r 3.016719402 _2_ RTR  --- 0 AODV 48 [0 ffffffff 0 800] ------- [0:255 -1:255 29 0] [0x2 2 1 [3 0] [1 6]] (REQUEST)
r 3.016719443 _9_ RTR  --- 0 AODV 48 [0 ffffffff 0 800] ------- [0:255 -1:255 29 0] [0x2 2 1 [3 0] [1 6]] (REQUEST)
r 3.016719449 _5_ RTR  --- 0 AODV 48 [0 ffffffff 0 800] ------- [0:255 -1:255 29 0] [0x2 2 1 [3 0] [1 6]] (REQUEST)
r 3.016719534 _13_ RTR  --- 0 AODV 48 [0 ffffffff 0 800] ------- [0:255 -1:255 29 0] [0x2 2 1 [3 0] [1 6]] (REQUEST)
r 3.016719555 _4_ RTR  --- 0 AODV 48 [0 ffffffff 0 800] ------- [0:255 -1:255 29 0] [0x2 2 1 [3 0] [1 6]] (REQUEST)
r 3.018261747 _1_ AGT  --- 23 cbr 44 [13a 1 0 800] ------- [0:0 1:0 30 1] [21] 1 0
s 3.018466700 _7_ RTR  --- 0 AODV 48 [0 ffffffff b 800] ------- [7:255 -1:255 28 0] [0x2 3 1 [3 0] [1 6]] (REQUEST)
s 3.019069246 _12_ RTR  --- 0 AODV 48 [0 ffffffff b 800] ------- [12:255 -1:255 28 0] [0x2 3 1 [3 0] [1 6]] (REQUEST)
r 3.019574508 _11_ RTR  --- 0 AODV 48 [0 ffffffff a 800] ------- [10:255 -1:255 29 0] [0x2 2 1 [3 0] [1 6]] (REQUEST)
r 3.019574583 _5_ RTR  --- 0 AODV 48 [0 ffffffff a 800] ------- [10:255 -1:255 29 0] [0x2 2 1 [3 0] [1 6]] (REQUEST)
r 3.019574620 _0_ RTR  --- 0 AODV 48 [0 ffffffff a 800] ------- [10:255 -1:255 29 0] [0x2 2 1 [3 0] [1 6]] (REQUEST)
r 3.019574662 _13_ RTR  --- 0 AODV 48 [0 ffffffff a 800] ------- [10:255 -1:255 29 0] [0x2 2 1 [3 0] [1 6]] (REQUEST)
r 3.019574785 _3_ RTR  --- 0 AODV 48 [0 ffffffff a 800] ------- [10:255 -1:255 29 0] [0x2 2 1 [3 0] [1 6]] (REQUEST)
r 3.019574856 _1_ RTR  --- 0 AODV 48 [0 ffffffff a 800] ------- [10:255 -1:255 29 0] [0x2 2 1 [3 0] [1 6]] (REQUEST)
r 3.019574890 _9_ RTR  --- 0 AODV 48 [0 ffffffff a 800] ------- [10:255 -1:255 29 0] [0x2 2 1 [3 0] [1 6]] (REQUEST)
r 3.019574922 _6_ RTR  --- 0 AODV 48 [0 ffffffff a 800] ------- [10:255 -1:255 29 0] [0x2 2 1 [3 0] [1 6]] (REQUEST)
r 3.019574923 _12_ RTR  --- 0 AODV 48 [0 ffffffff a 800] ------- [10:255 -1:255 29 0] [0x2 2 1 [3 0] [1 6]] (REQUEST)
r 3.019574973 _7_ RTR  --- 0 AODV 48 [0 ffffffff a 800] ------- [10:255 -1:255 29 0] [0x2 2 1 [3 0] [1 6]] (REQUEST)
r 3.019575041 _2_ RTR  --- 0 AODV 48 [0 ffffffff a 800] ------- [10:255 -1:255 29 0] [0x2 2 1 [3 0] [1 6]] (REQUEST)
r 3.019575127 _8_ RTR  --- 0 AODV 48 [0 ffffffff a 800] ------- [10:255 -1:255 29 0] [0x2 2 1 [3 0] [1 6]] (REQUEST)
r 3.020573168 _6_ RTR  --- 0 AODV 48 [0 ffffffff 2 800] ------- [2:255 -1:255 29 0] [0x2 2 1 [3 0] [1 6]] (REQUEST)
r 3.020573306 _1_ RTR  --- 0 AODV 48 [0 ffffffff 2 800] ------- [2:255 -1:255 29 0] [0x2 2 1 [3 0] [1 6]] (REQUEST)
r 3.020573586 _0_ RTR  --- 0 AODV 48 [0 ffffffff 2 800] ------- [2:255 -1:255 29 0] [0x2 2 1 [3 0] [1 6]] (REQUEST)
r 3.020573738 _4_ RTR  --- 0 AODV 48 [0 ffffffff 2 800] ------- [2:255 -1:255 29 0] [0x2 2 1 [3 0] [1 6]] (REQUEST)
r 3.020573782 _10_ RTR  --- 0 AODV 48 [0 ffffffff 2 800] ------- [2:255 -1:255 29 0] [0x2 2 1 [3 0] [1 6]] (REQUEST)
r 3.024271503 _3_ AGT  --- 21 cbr 44 [13a 3 1 800] ------- [1:1 3:0 30 3] [1] 1 0
s 3.024535827 _5_ RTR  --- 0 AODV 48 [0 ffffffff b 800] ------- [5:255 -1:255 28 0] [0x2 3 1 [3 0] [1 6]] (REQUEST)
s 3.025532017 _9_ RTR  --- 0 AODV 48 [0 ffffffff 0 800] ------- [9:255 -1:255 28 0] [0x2 3 1 [3 0] [1 6]] (REQUEST)
r 3.025593959 _5_ RTR  --- 0 AODV 48 [0 ffffffff d 800] ------- [13:255 -1:255 28 0] [0x2 3 1 [3 0] [1 6]] (REQUEST)
r 3.025594026 _11_ RTR  --- 0 AODV 48 [0 ffffffff d 800] ------- [13:255 -1:255 28 0] [0x2 3 1 [3 0] [1 6]] (REQUEST)
r 3.025594108 _12_ RTR  --- 0 AODV 48 [0 ffffffff d 800] ------- [13:255 -1:255 28 0] [0x2 3 1 [3 0] [1 6]] (REQUEST)
r 3.025594142 _10_ RTR  --- 0 AODV 48 [0 ffffffff d 800] ------- [13:255 -1:255 28 0] [0x2 3 1 [3 0] [1 6]] (REQUEST)
r 3.025594245 _7_ RTR  --- 0 AODV 48 [0 ffffffff d 800] ------- [13:255 -1:255 28 0] [0x2 3 1 [3 0] [1 6]] (REQUEST)
r 3.025594459 _0_ RTR  --- 0 AODV 48 [0 ffffffff d 800] ------- [13:255 -1:255 28 0] [0x2 3 1 [3 0] [1 6]] (REQUEST)
r 3.025594584 _3_ RTR  --- 0 AODV 48 [0 ffffffff d 800] ------- [13:255 -1:255 28 0] [0x2 3 1 [3 0] [1 6]] (REQUEST)
r 3.025594592 _9_ RTR  --- 0 AODV 48 [0 ffffffff d 800] ------- [13:255 -1:255 28 0] [0x2 3 1 [3 0] [1 6]] (REQUEST)
r 3.026532049 _11_ RTR  --- 0 AODV 48 [0 ffffffff 5 800] ------- [5:255 -1:255 28 0] [0x2 3 1 [3 0] [1 6]] (REQUEST)
r 3.026532136 _13_ RTR  --- 0 AODV 48 [0 ffffffff 5 800] ------- [5:255 -1:255 28 0] [0x2 3 1 [3 0] [1 6]] (REQUEST)
r 3.026532241 _10_ RTR  --- 0 AODV 48 [0 ffffffff 5 800] ------- [5:255 -1:255 28 0] [0x2 3 1 [3 0] [1 6]] (REQUEST)
r 3.026532300 _12_ RTR  --- 0 AODV 48 [0 ffffffff 5 800] ------- [5:255 -1:255 28 0] [0x2 3 1 [3 0] [1 6]] (REQUEST)
r 3.026532359 _7_ RTR  --- 0 AODV 48 [0 ffffffff 5 800] ------- [5:255 -1:255 28 0] [0x2 3 1 [3 0] [1 6]] (REQUEST)
r 3.026532550 _0_ RTR  --- 0 AODV 48 [0 ffffffff 5 800] ------- [5:255 -1:255 28 0] [0x2 3 1 [3 0] [1 6]] (REQUEST)
r 3.026532595 _9_ RTR  --- 0 AODV 48 [0 ffffffff 5 800] ------- [5:255 -1:255 28 0] [0x2 3 1 [3 0] [1 6]] (REQUEST)
r 3.026532612 _3_ RTR  --- 0 AODV 48 [0 ffffffff 5 800] ------- [5:255 -1:255 28 0] [0x2 3 1 [3 0] [1 6]] (REQUEST)
r 3.026532778 _8_ RTR  --- 0 AODV 48 [0 ffffffff 5 800] ------- [5:255 -1:255 28 0] [0x2 3 1 [3 0] [1 6]] (REQUEST)
s 3.027127481 _8_ RTR  --- 0 AODV 48 [0 ffffffff a 800] ------- [8:255 -1:255 28 0] [0x2 3 1 [3 0] [1 6]] (REQUEST)
r 3.027450849 _8_ RTR  --- 0 AODV 48 [0 ffffffff 9 800] ------- [9:255 -1:255 28 0] [0x2 3 1 [3 0] [1 6]] (REQUEST)
r 3.027450875 _3_ RTR  --- 0 AODV 48 [0 ffffffff 9 800] ------- [9:255 -1:255 28 0] [0x2 3 1 [3 0] [1 6]] (REQUEST)
r 3.027451165 _11_ RTR  --- 0 AODV 48 [0 ffffffff 9 800] ------- [9:255 -1:255 28 0] [0x2 3 1 [3 0] [1 6]] (REQUEST)
r 3.027451181 _0_ RTR  --- 0 AODV 48 [0 ffffffff 9 800] ------- [9:255 -1:255 28 0] [0x2 3 1 [3 0] [1 6]] (REQUEST)
r 3.027451184 _10_ RTR  --- 0 AODV 48 [0 ffffffff 9 800] ------- [9:255 -1:255 28 0] [0x2 3 1 [3 0] [1 6]] (REQUEST)
r 3.027451232 _5_ RTR  --- 0 AODV 48 [0 ffffffff 9 800] ------- [9:255 -1:255 28 0] [0x2 3 1 [3 0] [1 6]] (REQUEST)
r 3.027451360 _7_ RTR  --- 0 AODV 48 [0 ffffffff 9 800] ------- [9:255 -1:255 28 0] [0x2 3 1 [3 0] [1 6]] (REQUEST)
r 3.027451406 _13_ RTR  --- 0 AODV 48 [0 ffffffff 9 800] ------- [9:255 -1:255 28 0] [0x2 3 1 [3 0] [1 6]] (REQUEST)
r 3.030604095 _12_ RTR  --- 0 AODV 48 [0 ffffffff 7 800] ------- [7:255 -1:255 28 0] [0x2 3 1 [3 0] [1 6]] (REQUEST)
r 3.030604299 _5_ RTR  --- 0 AODV 48 [0 ffffffff 7 800] ------- [7:255 -1:255 28 0] [0x2 3 1 [3 0] [1 6]] (REQUEST)
r 3.030604362 _13_ RTR  --- 0 AODV 48 [0 ffffffff 7 800] ------- [7:255 -1:255 28 0] [0x2 3 1 [3 0] [1 6]] (REQUEST)
r 3.030604363 _11_ RTR  --- 0 AODV 48 [0 ffffffff 7 800] ------- [7:255 -1:255 28 0] [0x2 3 1 [3 0] [1 6]] (REQUEST)
r 3.030604570 _10_ RTR  --- 0 AODV 48 [0 ffffffff 7 800] ------- [7:255 -1:255 28 0] [0x2 3 1 [3 0] [1 6]] (REQUEST)
r 3.030604663 _9_ RTR  --- 0 AODV 48 [0 ffffffff 7 800] ------- [7:255 -1:255 28 0] [0x2 3 1 [3 0] [1 6]] (REQUEST)
r 3.031642292 _7_ RTR  --- 0 AODV 48 [0 ffffffff c 800] ------- [12:255 -1:255 28 0] [0x2 3 1 [3 0] [1 6]] (REQUEST)
r 3.031642422 _13_ RTR  --- 0 AODV 48 [0 ffffffff c 800] ------- [12:255 -1:255 28 0] [0x2 3 1 [3 0] [1 6]] (REQUEST)
r 3.031642437 _5_ RTR  --- 0 AODV 48 [0 ffffffff c 800] ------- [12:255 -1:255 28 0] [0x2 3 1 [3 0] [1 6]] (REQUEST)
r 3.031642523 _11_ RTR  --- 0 AODV 48 [0 ffffffff c 800] ------- [12:255 -1:255 28 0] [0x2 3 1 [3 0] [1 6]] (REQUEST)
r 3.031642717 _10_ RTR  --- 0 AODV 48 [0 ffffffff c 800] ------- [12:255 -1:255 28 0] [0x2 3 1 [3 0] [1 6]] (REQUEST)
r 3.033165327 _9_ RTR  --- 0 AODV 48 [0 ffffffff 8 800] ------- [8:255 -1:255 28 0] [0x2 3 1 [3 0] [1 6]] (REQUEST)
r 3.033165589 _3_ RTR  --- 0 AODV 48 [0 ffffffff 8 800] ------- [8:255 -1:255 28 0] [0x2 3 1 [3 0] [1 6]] (REQUEST)
r 3.033165841 _11_ RTR  --- 0 AODV 48 [0 ffffffff 8 800] ------- [8:255 -1:255 28 0] [0x2 3 1 [3 0] [1 6]] (REQUEST)
r 3.033165891 _5_ RTR  --- 0 AODV 48 [0 ffffffff 8 800] ------- [8:255 -1:255 28 0] [0x2 3 1 [3 0] [1 6]] (REQUEST)
r 3.033165898 _10_ RTR  --- 0 AODV 48 [0 ffffffff 8 800] ------- [8:255 -1:255 28 0] [0x2 3 1 [3 0] [1 6]] (REQUEST)
s 3.100000000 _1_ AGT  --- 24 cbr 1000 [0 0 0 0] ------- [1:1 3:0 32 0] [2] 0 0
r 3.100000000 _1_ RTR  --- 24 cbr 1000 [0 0 0 0] ------- [1:1 3:0 32 0] [2] 0 0
s 3.100000000 _1_ AGT  --- 25 cbr 24 [0 0 0 0] ------- [1:1 3:0 32 0] [3] 0 0
r 3.100000000 _1_ RTR  --- 25 cbr 24 [0 0 0 0] ------- [1:1 3:0 32 0] [3] 0 0
s 3.100000000 _1_ RTR  --- 24 cbr 1020 [0 0 0 0] ------- [1:1 3:0 30 3] [2] 0 0