n -t * -s 0  -x 168 -y 161 -Z 0 -z 30  -v circle -c black
n -t * -s 1  -x 80 -y 174 -Z 0 -z 30  -v circle -c black
n -t * -s 2  -x 16 -y 221 -Z 0 -z 30  -v circle -c black
n -t * -s 3  -x 234 -y 81 -Z 0 -z 30  -v circle -c black
n -t * -s 4  -x 21 -y 12 -Z 0 -z 30  -v circle -c black
n -t * -s 5  -x 316 -y 259 -Z 0 -z 30  -v circle -c black
n -t * -s 6  -x 52 -y 233 -Z 0 -z 30  -v circle -c black
n -t * -s 7  -x 436 -y 264 -Z 0 -z 30  -v circle -c black
n -t * -s 8  -x 377 -y 21 -Z 0 -z 30  -v circle -c black
n -t * -s 9  -x 317 -y 68 -Z 0 -z 30  -v circle -c black
n -t * -s 10  -x 238 -y 226 -Z 0 -z 30  -v circle -c black
n -t * -s 11  -x 299 -y 238 -Z 0 -z 30  -v circle -c black
n -t * -s 12  -x 403 -y 313 -Z 0 -z 30  -v circle -c black
n -t * -s 13  -x 305 -y 311 -Z 0 -z 30  -v circle -c black
V -t * -v 1.0a5 -a 0
W -t * -x 500 -y 400
A -t * -n 1 -p 0 -o 0x7fffffff -c 30 -a 1
A -t * -h 1 -m 1073741823 -s 0
+ -t 2.000000000 -s 0 -d -1 -p cbr -e 1000 -c 2 -a 0 -i 0 -k AGT 
- -t 2.000000000 -s 0 -d -1 -p cbr -e 1000 -c 2 -a 0 -i 0 -k AGT
h -t 2.000000000 -s 0 -d -1 -p cbr -e 1000 -c 2 -a 0 -i 0 -k AGT
+ -t 2.000000000 -s 0 -d -1 -p cbr -e 24 -c 2 -a 0 -i 1 -k AGT 
- -t 2.000000000 -s 0 -d -1 -p cbr -e 24 -c 2 -a 0 -i 1 -k AGT
h -t 2.000000000 -s 0 -d -1 -p cbr -e 24 -c 2 -a 0 -i 1 -k AGT
v -t 2 -e sim_annotation 2 1 Sender sends the data to the receiver through the selected router which is attacker
+ -t 2.000000000 -s 0 -d -1 -p AODV -e 48 -c 2 -a 0 -i 0 -k RTR 
- -t 2.000000000 -s 0 -d -1 -p AODV -e 48 -c 2 -a 0 -i 0 -k RTR
h -t 2.000000000 -s 0 -d -1 -p AODV -e 48 -c 2 -a 0 -i 0 -k RTR
r -t 2.001408297 -s 1 -d -1 -p AODV -e 48 -c 2 -a 0 -i 0 -k RTR
+ -t 2.001408297 -s 1 -d 0 -p AODV -e 44 -c 2 -a 0 -i 0 -k RTR 
- -t 2.001408297 -s 1 -d 0 -p AODV -e 44 -c 2 -a 0 -i 0 -k RTR
h -t 2.001408297 -s 1 -d 0 -p AODV -e 44 -c 2 -a 0 -i 0 -k RTR
r -t 2.001408318 -s 10 -d -1 -p AODV -e 48 -c 2 -a 0 -i 0 -k RTR
r -t 2.001408346 -s 3 -d -1 -p AODV -e 48 -c 2 -a 0 -i 0 -k RTR
r -t 2.001408455 -s 6 -d -1 -p AODV -e 48 -c 2 -a 0 -i 0 -k RTR
r -t 2.001408507 -s 11 -d -1 -p AODV -e 48 -c 2 -a 0 -i 0 -k RTR
r -t 2.001408545 -s 2 -d -1 -p AODV -e 48 -c 2 -a 0 -i 0 -k RTR
r -t 2.001408585 -s 9 -d -1 -p AODV -e 48 -c 2 -a 0 -i 0 -k RTR
r -t 2.001408592 -s 5 -d -1 -p AODV -e 48 -c 2 -a 0 -i 0 -k RTR
r -t 2.001408677 -s 13 -d -1 -p AODV -e 48 -c 2 -a 0 -i 0 -k RTR
r -t 2.001408698 -s 4 -d -1 -p AODV -e 48 -c 2 -a 0 -i 0 -k RTR
+ -t 2.001550365 -s 10 -d -1 -p AODV -e 48 -c 2 -a 0 -i 0 -k RTR 
- -t 2.001550365 -s 10 -d -1 -p AODV -e 48 -c 2 -a 0 -i 0 -k RTR
h -t 2.001550365 -s 10 -d -1 -p AODV -e 48 -c 2 -a 0 -i 0 -k RTR
+ -t 2.002289572 -s 3 -d -1 -p AODV -e 48 -c 2 -a 0 -i 0 -k RTR 
- -t 2.002289572 -s 3 -d -1 -p AODV -e 48 -c 2 -a 0 -i 0 -k RTR
h -t 2.002289572 -s 3 -d -1 -p AODV -e 48 -c 2 -a 0 -i 0 -k RTR
r -t 2.002538572 -s 11 -d -1 -p AODV -e 48 -c 2 -a 0 -i 0 -k RTR
r -t 2.002538647 -s 5 -d -1 -p AODV -e 48 -c 2 -a 0 -i 0 -k RTR
r -t 2.002538683 -s 0 -d -1 -p AODV -e 48 -c 2 -a 0 -i 0 -k RTR
r -t 2.002538726 -s 13 -d -1 -p AODV -e 48 -c 2 -a 0 -i 0 -k RTR
r -t 2.002538849 -s 3 -d -1 -p AODV -e 48 -c 2 -a 0 -i 0 -k RTR
r -t 2.002538919 -s 1 -d -1 -p AODV -e 48 -c 2 -a 0 -i 0 -k RTR
r -t 2.002538954 -s 9 -d -1 -p AODV -e 48 -c 2 -a 0 -i 0 -k RTR
r -t 2.002538985 -s 6 -d -1 -p AODV -e 48 -c 2 -a 0 -i 0 -k RTR
r -t 2.002538987 -s 12 -d -1 -p AODV -e 48 -c 2 -a 0 -i 0 -k RTR
r -t 2.002539037 -s 7 -d -1 -p AODV -e 48 -c 2 -a 0 -i 0 -k RTR
r -t 2.002539105 -s 2 -d -1 -p AODV -e 48 -c 2 -a 0 -i 0 -k RTR
r -t 2.002539191 -s 8 -d -1 -p AODV -e 48 -c 2 -a 0 -i 0 -k RTR
+ -t 2.003677069 -s 12 -d -1 -p AODV -e 48 -c 2 -a 0 -i 0 -k RTR 
- -t 2.003677069 -s 12 -d -1 -p AODV -e 48 -c 2 -a 0 -i 0 -k RTR
h -t 2.003677069 -s 12 -d -1 -p AODV -e 48 -c 2 -a 0 -i 0 -k RTR
+ -t 2.003754609 -s 5 -d -1 -p AODV -e 48 -c 2 -a 0 -i 0 -k RTR 
- -t 2.003754609 -s 5 -d -1 -p AODV -e 48 -c 2 -a 0 -i 0 -k RTR
h -t 2.003754609 -s 5 -d -1 -p AODV -e 48 -c 2 -a 0 -i 0 -k RTR
+ -t 2.004499488 -s 4 -d -1 -p AODV -e 48 -c 2 -a 0 -i 0 -k RTR 
- -t 2.004499488 -s 4 -d -1 -p AODV -e 48 -c 2 -a 0 -i 0 -k RTR
h -t 2.004499488 -s 4 -d -1 -p AODV -e 48 -c 2 -a 0 -i 0 -k RTR
+ -t 2.004538162 -s 2 -d -1 -p AODV -e 48 -c 2 -a 0 -i 0 -k RTR 
- -t 2.004538162 -s 2 -d -1 -p AODV -e 48 -c 2 -a 0 -i 0 -k RTR
h -t 2.004538162 -s 2 -d -1 -p AODV -e 48 -c 2 -a 0 -i 0 -k RTR
+ -t 2.005820189 -s 6 -d -1 -p AODV -e 48 -c 2 -a 0 -i 0 -k RTR 
- -t 2.005820189 -s 6 -d -1 -p AODV -e 48 -c 2 -a 0 -i 0 -k RTR
h -t 2.005820189 -s 6 -d -1 -p AODV -e 48 -c 2 -a 0 -i 0 -k RTR
r -t 2.006309497 -s 6 -d -1 -p AODV -e 48 -c 2 -a 0 -i 0 -k RTR
r -t 2.006309635 -s 1 -d -1 -p AODV -e 48 -c 2 -a 0 -i 0 -k RTR
r -t 2.006309915 -s 0 -d -1 -p AODV -e 48 -c 2 -a 0 -i 0 -k RTR
r -t 2.006310067 -s 4 -d -1 -p AODV -e 48 -c 2 -a 0 -i 0 -k RTR
r -t 2.006310110 -s 10 -d -1 -p AODV -e 48 -c 2 -a 0 -i 0 -k RTR
+ -t 2.006775758 -s 8 -d -1 -p AODV -e 48 -c 2 -a 0 -i 0 -k RTR 
- -t 2.006775758 -s 8 -d -1 -p AODV -e 48 -c 2 -a 0 -i 0 -k RTR
h -t 2.006775758 -s 8 -d -1 -p AODV -e 48 -c 2 -a 0 -i 0 -k RTR
+ -t 2.007797329 -s 13 -d -1 -p AODV -e 48 -c 2 -a 0 -i 0 -k RTR 
- -t 2.007797329 -s 13 -d -1 -p AODV -e 48 -c 2 -a 0 -i 0 -k RTR
h -t 2.007797329 -s 13 -d -1 -p AODV -e 48 -c 2 -a 0 -i 0 -k RTR
+ -t 2.007972524 -s 0 -d 1 -p cbr -e 1020 -c 2 -a 0 -i 0 -k RTR 
- -t 2.007972524 -s 0 -d 1 -p cbr -e 1020 -c 2 -a 0 -i 0 -k RTR
h -t 2.007972524 -s 0 -d 1 -p cbr -e 1020 -c 2 -a 0 -i 0 -k RTR
r -t 2.009265797 -s 1 -d -1 -p AODV -e 48 -c 2 -a 0 -i 0 -k RTR
r -t 2.009265919 -s 2 -d -1 -p AODV -e 48 -c 2 -a 0 -i 0 -k RTR
r -t 2.009265920 -s 0 -d -1 -p AODV -e 48 -c 2 -a 0 -i 0 -k RTR
r -t 2.009265966 -s 6 -d -1 -p AODV -e 48 -c 2 -a 0 -i 0 -k RTR
r -t 2.009265968 -s 3 -d -1 -p AODV -e 48 -c 2 -a 0 -i 0 -k RTR
+ -t 2.009400061 -s 11 -d -1 -p AODV -e 48 -c 2 -a 0 -i 0 -k RTR 
- -t 2.009400061 -s 11 -d -1 -p AODV -e 48 -c 2 -a 0 -i 0 -k RTR
h -t 2.009400061 -s 11 -d -1 -p AODV -e 48 -c 2 -a 0 -i 0 -k RTR
+ -t 2.009573346 -s 9 -d -1 -p AODV -e 48 -c 2 -a 0 -i 0 -k RTR 
- -t 2.009573346 -s 9 -d -1 -p AODV -e 48 -c 2 -a 0 -i 0 -k RTR
h -t 2.009573346 -s 9 -d -1 -p AODV -e 48 -c 2 -a 0 -i 0 -k RTR
+ -t 2.011136314 -s 7 -d -1 -p AODV -e 48 -c 2 -a 0 -i 0 -k RTR 
- -t 2.011136314 -s 7 -d -1 -p AODV -e 48 -c 2 -a 0 -i 0 -k RTR
h -t 2.011136314 -s 7 -d -1 -p AODV -e 48 -c 2 -a 0 -i 0 -k RTR
+ -t 2.017972524 -s 0 -d 1 -p cbr -e 44 -c 2 -a 0 -i 1 -k RTR 
- -t 2.017972524 -s 0 -d 1 -p cbr -e 44 -c 2 -a 0 -i 1 -k RTR
h -t 2.017972524 -s 0 -d 1 -p cbr -e 44 -c 2 -a 0 -i 1 -k RTR
r -t 2.018636809 -s 1 -d 1 -p cbr -e 1020 -c 2 -a 0 -i 0 -k AGT
r -t 2.019889660 -s 5 -d -1 -p AODV -e 48 -c 2 -a 0 -i 0 -k RTR
r -t 2.019889689 -s 9 -d -1 -p AODV -e 48 -c 2 -a 0 -i 0 -k RTR
r -t 2.019889777 -s 10 -d -1 -p AODV -e 48 -c 2 -a 0 -i 0 -k RTR
r -t 2.019889814 -s 13 -d -1 -p AODV -e 48 -c 2 -a 0 -i 0 -k RTR
r -t 2.019889997 -s 12 -d -1 -p AODV -e 48 -c 2 -a 0 -i 0 -k RTR
r -t 2.019890035 -s 7 -d -1 -p AODV -e 48 -c 2 -a 0 -i 0 -k RTR
r -t 2.021896966 -s 1 -d 1 -p cbr -e 44 -c 2 -a 0 -i 1 -k AGT
r -t 2.023189310 -s 2 -d -1 -p AODV -e 48 -c 2 -a 0 -i 0 -k RTR
r -t 2.023189401 -s 1 -d -1 -p AODV -e 48 -c 2 -a 0 -i 0 -k RTR
r -t 2.023189639 -s 0 -d -1 -p AODV -e 48 -c 2 -a 0 -i 0 -k RTR
r -t 2.023189804 -s 10 -d -1 -p AODV -e 48 -c 2 -a 0 -i 0 -k RTR
r -t 2.023189928 -s 4 -d -1 -p AODV -e 48 -c 2 -a 0 -i 0 -k RTR
r -t 2.023189974 -s 3 -d -1 -p AODV -e 48 -c 2 -a 0 -i 0 -k RTR
r -t 2.023190007 -s 11 -d -1 -p AODV -e 48 -c 2 -a 0 -i 0 -k RTR
r -t 2.024532158 -s 11 -d -1 -p AODV -e 48 -c 2 -a 0 -i 0 -k RTR
r -t 2.024532245 -s 13 -d -1 -p AODV -e 48 -c 2 -a 0 -i 0 -k RTR
r -t 2.024532350 -s 10 -d -1 -p AODV -e 48 -c 2 -a 0 -i 0 -k RTR
r -t 2.024532409 -s 12 -d -1 -p AODV -e 48 -c 2 -a 0 -i 0 -k RTR
r -t 2.024532468 -s 7 -d -1 -p AODV -e 48 -c 2 -a 0 -i 0 -k RTR
r -t 2.024532660 -s 0 -d -1 -p AODV -e 48 -c 2 -a 0 -i 0 -k RTR
r -t 2.024532705 -s 9 -d -1 -p AODV -e 48 -c 2 -a 0 -i 0 -k RTR
r -t 2.024532721 -s 3 -d -1 -p AODV -e 48 -c 2 -a 0 -i 0 -k RTR
r -t 2.024532887 -s 8 -d -1 -p AODV -e 48 -c 2 -a 0 -i 0 -k RTR
r -t 2.025550959 -s 8 -d -1 -p AODV -e 48 -c 2 -a 0 -i 0 -k RTR
r -t 2.025550985 -s 3 -d -1 -p AODV -e 48 -c 2 -a 0 -i 0 -k RTR
r -t 2.025551274 -s 11 -d -1 -p AODV -e 48 -c 2 -a 0 -i 0 -k RTR
r -t 2.025551290 -s 0 -d -1 -p AODV -e 48 -c 2 -a 0 -i 0 -k RTR
r -t 2.025551293 -s 10 -d -1 -p AODV -e 48 -c 2 -a 0 -i 0 -k RTR
r -t 2.025551341 -s 5 -d -1 -p AODV -e 48 -c 2 -a 0 -i 0 -k RTR
r -t 2.025551469 -s 7 -d -1 -p AODV -e 48 -c 2 -a 0 -i 0 -k RTR
r -t 2.025551516 -s 13 -d -1 -p AODV -e 48 -c 2 -a 0 -i 0 -k RTR
r -t 2.026509666 -s 12 -d -1 -p AODV -e 48 -c 2 -a 0 -i 0 -k RTR
r -t 2.026509869 -s 5 -d -1 -p AODV -e 48 -c 2 -a 0 -i 0 -k RTR
r -t 2.026509933 -s 13 -d -1 -p AODV -e 48 -c 2 -a 0 -i 0 -k RTR
r -t 2.026509934 -s 11 -d -1 -p AODV -e 48 -c 2 -a 0 -i 0 -k RTR
r -t 2.026510141 -s 10 -d -1 -p AODV -e 48 -c 2 -a 0 -i 0 -k RTR
r -t 2.026510233 -s 9 -d -1 -p AODV -e 48 -c 2 -a 0 -i 0 -k RTR
r -t 2.027427863 -s 7 -d -1 -p AODV -e 48 -c 2 -a 0 -i 0 -k RTR
r -t 2.028911183 -s 9 -d -1 -p AODV -e 48 -c 2 -a 0 -i 0 -k RTR
r -t 2.028911446 -s 3 -d -1 -p AODV -e 48 -c 2 -a 0 -i 0 -k RTR
r -t 2.028911698 -s 11 -d -1 -p AODV -e 48 -c 2 -a 0 -i 0 -k RTR
r -t 2.028911748 -s 5 -d -1 -p AODV -e 48 -c 2 -a 0 -i 0 -k RTR
r -t 2.028911754 -s 10 -d -1 -p AODV -e 48 -c 2 -a 0 -i 0 -k RTR
v -t 2.1 -e sim_annotation 2.1 2 Attacker 3 and 8 forms wormhole
+ -t 2.100000000 -s 0 -d -1 -p cbr -e 1000 -c 2 -a 0 -i 2 -k AGT 
- -t 2.100000000 -s 0 -d -1 -p cbr -e 1000 -c 2 -a 0 -i 2 -k AGT
h -t 2.100000000 -s 0 -d -1 -p cbr -e 1000 -c 2 -a 0 -i 2 -k AGT
+ -t 2.100000000 -s 0 -d -1 -p cbr -e 24 -c 2 -a 0 -i 3 -k AGT 
- -t 2.100000000 -s 0 -d -1 -p cbr -e 24 -c 2 -a 0 -i 3 -k AGT
h -t 2.100000000 -s 0 -d -1 -p cbr -e 24 -c 2 -a 0 -i 3 -k AGT
+ -t 2.100000000 -s 0 -d 1 -p cbr -e 1020 -c 2 -a 0 -i 2 -k RTR 
- -t 2.100000000 -s 0 -d 1 -p cbr -e 1020 -c 2 -a 0 -i 2 -k RTR
h -t 2.100000000 -s 0 -d 1 -p cbr -e 1020 -c 2 -a 0 -i 2 -k RTR
+ -t 2.100000000 -s 0 -d 1 -p cbr -e 44 -c 2 -a 0 -i 3 -k RTR 
- -t 2.100000000 -s 0 -d 1 -p cbr -e 44 -c 2 -a 0 -i 3 -k RTR
h -t 2.100000000 -s 0 -d 1 -p cbr -e 44 -c 2 -a 0 -i 3 -k RTR
r -t 2.109740890 -s 1 -d 1 -p cbr -e 1020 -c 2 -a 0 -i 2 -k AGT
r -t 2.112098076 -s 1 -d 1 -p cbr -e 44 -c 2 -a 0 -i 3 -k AGT
+ -t 2.200000000 -s 0 -d -1 -p cbr -e 1000 -c 2 -a 0 -i 4 -k AGT 
- -t 2.200000000 -s 0 -d -1 -p cbr -e 1000 -c 2 -a 0 -i 4 -k AGT
h -t 2.200000000 -s 0 -d -1 -p cbr -e 1000 -c 2 -a 0 -i 4 -k AGT
+ -t 2.200000000 -s 0 -d -1 -p cbr -e 24 -c 2 -a 0 -i 5 -k AGT 
- -t 2.200000000 -s 0 -d -1 -p cbr -e 24 -c 2 -a 0 -i 5 -k AGT
h -t 2.200000000 -s 0 -d -1 -p cbr -e 24 -c 2 -a 0 -i 5 -k AGT
+ -t 2.200000000 -s 0 -d 1 -p cbr -e 1020 -c 2 -a 0 -i 4 -k RTR 
- -t 2.200000000 -s 0 -d 1 -p cbr -e 1020 -c 2 -a 0 -i 4 -k RTR
h -t 2.200000000 -s 0 -d 1 -p cbr -e 1020 -c 2 -a 0 -i 4 -k RTR
+ -t 2.200000000 -s 0 -d 1 -p cbr -e 44 -c 2 -a 0 -i 5 -k RTR 
- -t 2.200000000 -s 0 -d 1 -p cbr -e 44 -c 2 -a 0 -i 5 -k RTR
h -t 2.200000000 -s 0 -d 1 -p cbr -e 44 -c 2 -a 0 -i 5 -k RTR
r -t 2.209580890 -s 1 -d 1 -p cbr -e 1020 -c 2 -a 0 -i 4 -k AGT
r -t 2.211718076 -s 1 -d 1 -p cbr -e 44 -c 2 -a 0 -i 5 -k AGT
+ -t 2.300000000 -s 0 -d -1 -p cbr -e 1000 -c 2 -a 0 -i 6 -k AGT 
- -t 2.300000000 -s 0 -d -1 -p cbr -e 1000 -c 2 -a 0 -i 6 -k AGT
h -t 2.300000000 -s 0 -d -1 -p cbr -e 1000 -c 2 -a 0 -i 6 -k AGT
+ -t 2.300000000 -s 0 -d -1 -p cbr -e 24 -c 2 -a 0 -i 7 -k AGT 
- -t 2.300000000 -s 0 -d -1 -p cbr -e 24 -c 2 -a 0 -i 7 -k AGT
h -t 2.300000000 -s 0 -d -1 -p cbr -e 24 -c 2 -a 0 -i 7 -k AGT
+ -t 2.300000000 -s 0 -d 1 -p cbr -e 1020 -c 2 -a 0 -i 6 -k RTR 
- -t 2.300000000 -s 0 -d 1 -p cbr -e 1020 -c 2 -a 0 -i 6 -k RTR
h -t 2.300000000 -s 0 -d 1 -p cbr -e 1020 -c 2 -a 0 -i 6 -k RTR
+ -t 2.300000000 -s 0 -d 1 -p cbr -e 44 -c 2 -a 0 -i 7 -k RTR 
- -t 2.300000000 -s 0 -d 1 -p cbr -e 44 -c 2 -a 0 -i 7 -k RTR
h -t 2.300000000 -s 0 -d 1 -p cbr -e 44 -c 2 -a 0 -i 7 -k RTR
r -t 2.309400890 -s 1 -d 1 -p cbr -e 1020 -c 2 -a 0 -i 6 -k AGT
r -t 2.311478076 -s 1 -d 1 -p cbr -e 44 -c 2 -a 0 -i 7 -k AGT
+ -t 2.400000000 -s 0 -d -1 -p cbr -e 1000 -c 2 -a 0 -i 8 -k AGT 
- -t 2.400000000 -s 0 -d -1 -p cbr -e 1000 -c 2 -a 0 -i 8 -k AGT
h -t 2.400000000 -s 0 -d -1 -p cbr -e 1000 -c 2 -a 0 -i 8 -k AGT
+ -t 2.400000000 -s 0 -d -1 -p cbr -e 24 -c 2 -a 0 -i 9 -k AGT 
- -t 2.400000000 -s 0 -d -1 -p cbr -e 24 -c 2 -a 0 -i 9 -k AGT
h -t 2.400000000 -s 0 -d -1 -p cbr -e 24 -c 2 -a 0 -i 9 -k AGT
+ -t 2.400000000 -s 0 -d 1 -p cbr -e 1020 -c 2 -a 0 -i 8 -k RTR 
- -t 2.400000000 -s 0 -d 1 -p cbr -e 1020 -c 2 -a 0 -i 8 -k RTR
h -t 2.400000000 -s 0 -d 1 -p cbr -e 1020 -c 2 -a 0 -i 8 -k RTR
+ -t 2.400000000 -s 0 -d 1 -p cbr -e 44 -c 2 -a 0 -i 9 -k RTR 
- -t 2.400000000 -s 0 -d 1 -p cbr -e 44 -c 2 -a 0 -i 9 -k RTR
h -t 2.400000000 -s 0 -d 1 -p cbr -e 44 -c 2 -a 0 -i 9 -k RTR
r -t 2.409560890 -s 1 -d 1 -p cbr -e 1020 -c 2 -a 0 -i 8 -k AGT
r -t 2.411638076 -s 1 -d 1 -p cbr -e 44 -c 2 -a 0 -i 9 -k AGT
+ -t 2.500000000 -s 0 -d -1 -p cbr -e 1000 -c 2 -a 0 -i 10 -k AGT 
- -t 2.500000000 -s 0 -d -1 -p cbr -e 1000 -c 2 -a 0 -i 10 -k AGT
h -t 2.500000000 -s 0 -d -1 -p cbr -e 1000 -c 2 -a 0 -i 10 -k AGT
+ -t 2.500000000 -s 0 -d -1 -p cbr -e 24 -c 2 -a 0 -i 11 -k AGT 
- -t 2.500000000 -s 0 -d -1 -p cbr -e 24 -c 2 -a 0 -i 11 -k AGT
h -t 2.500000000 -s 0 -d -1 -p cbr -e 24 -c 2 -a 0 -i 11 -k AGT
+ -t 2.500000000 -s 0 -d 1 -p cbr -e 1020 -c 2 -a 0 -i 10 -k RTR 
- -t 2.500000000 -s 0 -d 1 -p cbr -e 1020 -c 2 -a 0 -i 10 -k RTR
h -t 2.500000000 -s 0 -d 1 -p cbr -e 1020 -c 2 -a 0 -i 10 -k RTR
+ -t 2.500000000 -s 0 -d 1 -p cbr -e 44 -c 2 -a 0 -i 11 -k RTR 
- -t 2.500000000 -s 0 -d 1 -p cbr -e 44 -c 2 -a 0 -i 11 -k RTR
h -t 2.500000000 -s 0 -d 1 -p cbr -e 44 -c 2 -a 0 -i 11 -k RTR
r -t 2.509700890 -s 1 -d 1 -p cbr -e 1020 -c 2 -a 0 -i 10 -k AGT
r -t 2.511558076 -s 1 -d 1 -p cbr -e 44 -c 2 -a 0 -i 11 -k AGT
+ -t 2.600000000 -s 0 -d -1 -p cbr -e 1000 -c 2 -a 0 -i 12 -k AGT 
- -t 2.600000000 -s 0 -d -1 -p cbr -e 1000 -c 2 -a 0 -i 12 -k AGT
h -t 2.600000000 -s 0 -d -1 -p cbr -e 1000 -c 2 -a 0 -i 12 -k AGT
+ -t 2.600000000 -s 0 -d -1 -p cbr -e 24 -c 2 -a 0 -i 13 -k AGT 
- -t 2.600000000 -s 0 -d -1 -p cbr -e 24 -c 2 -a 0 -i 13 -k AGT
h -t 2.600000000 -s 0 -d -1 -p cbr -e 24 -c 2 -a 0 -i 13 -k AGT
+ -t 2.600000000 -s 0 -d 1 -p cbr -e 1020 -c 2 -a 0 -i 12 -k RTR 
- -t 2.600000000 -s 0 -d 1 -p cbr -e 1020 -c 2 -a 0 -i 12 -k RTR
h -t 2.600000000 -s 0 -d 1 -p cbr -e 1020 -c 2 -a 0 -i 12 -k RTR
+ -t 2.600000000 -s 0 -d 1 -p cbr -e 44 -c 2 -a 0 -i 13 -k RTR 
- -t 2.600000000 -s 0 -d 1 -p cbr -e 44 -c 2 -a 0 -i 13 -k RTR
h -t 2.600000000 -s 0 -d 1 -p cbr -e 44 -c 2 -a 0 -i 13 -k RTR
r -t 2.609700890 -s 1 -d 1 -p cbr -e 1020 -c 2 -a 0 -i 12 -k AGT
r -t 2.611838076 -s 1 -d 1 -p cbr -e 44 -c 2 -a 0 -i 13 -k AGT
+ -t 2.700000000 -s 0 -d -1 -p cbr -e 1000 -c 2 -a 0 -i 14 -k AGT 
- -t 2.700000000 -s 0 -d -1 -p cbr -e 1000 -c 2 -a 0 -i 14 -k AGT
h -t 2.700000000 -s 0 -d -1 -p cbr -e 1000 -c 2 -a 0 -i 14 -k AGT
+ -t 2.700000000 -s 0 -d -1 -p cbr -e 24 -c 2 -a 0 -i 15 -k AGT 
- -t 2.700000000 -s 0 -d -1 -p cbr -e 24 -c 2 -a 0 -i 15 -k AGT
h -t 2.700000000 -s 0 -d -1 -p cbr -e 24 -c 2 -a 0 -i 15 -k AGT
+ -t 2.700000000 -s 0 -d 1 -p cbr -e 1020 -c 2 -a 0 -i 14 -k RTR 
- -t 2.700000000 -s 0 -d 1 -p cbr -e 1020 -c 2 -a 0 -i 14 -k RTR
h -t 2.700000000 -s 0 -d 1 -p cbr -e 1020 -c 2 -a 0 -i 14 -k RTR
+ -t 2.700000000 -s 0 -d 1 -p cbr -e 44 -c 2 -a 0 -i 15 -k RTR 
- -t 2.700000000 -s 0 -d 1 -p cbr -e 44 -c 2 -a 0 -i 15 -k RTR
h -t 2.700000000 -s 0 -d 1 -p cbr -e 44 -c 2 -a 0 -i 15 -k RTR
r -t 2.709880890 -s 1 -d 1 -p cbr -e 1020 -c 2 -a 0 -i 14 -k AGT
r -t 2.711978076 -s 1 -d 1 -p cbr -e 44 -c 2 -a 0 -i 15 -k AGT
+ -t 2.800000000 -s 0 -d -1 -p cbr -e 1000 -c 2 -a 0 -i 16 -k AGT 
- -t 2.800000000 -s 0 -d -1 -p cbr -e 1000 -c 2 -a 0 -i 16 -k AGT
h -t 2.800000000 -s 0 -d -1 -p cbr -e 1000 -c 2 -a 0 -i 16 -k AGT
+ -t 2.800000000 -s 0 -d -1 -p cbr -e 24 -c 2 -a 0 -i 17 -k AGT 
- -t 2.800000000 -s 0 -d -1 -p cbr -e 24 -c 2 -a 0 -i 17 -k AGT
h -t 2.800000000 -s 0 -d -1 -p cbr -e 24 -c 2 -a 0 -i 17 -k AGT
+ -t 2.800000000 -s 0 -d 1 -p cbr -e 1020 -c 2 -a 0 -i 16 -k RTR 
- -t 2.800000000 -s 0 -d 1 -p cbr -e 1020 -c 2 -a 0 -i 16 -k RTR
h -t 2.800000000 -s 0 -d 1 -p cbr -e 1020 -c 2 -a 0 -i 16 -k RTR
+ -t 2.800000000 -s 0 -d 1 -p cbr -e 44 -c 2 -a 0 -i 17 -k RTR 
- -t 2.800000000 -s 0 -d 1 -p cbr -e 44 -c 2 -a 0 -i 17 -k RTR
h -t 2.800000000 -s 0 -d 1 -p cbr -e 44 -c 2 -a 0 -i 17 -k RTR
r -t 2.809700890 -s 1 -d 1 -p cbr -e 1020 -c 2 -a 0 -i 16 -k AGT
r -t 2.811598076 -s 1 -d 1 -p cbr -e 44 -c 2 -a 0 -i 17 -k AGT
+ -t 2.900000000 -s 0 -d -1 -p cbr -e 1000 -c 2 -a 0 -i 18 -k AGT 
- -t 2.900000000 -s 0 -d -1 -p cbr -e 1000 -c 2 -a 0 -i 18 -k AGT
h -t 2.900000000 -s 0 -d -1 -p cbr -e 1000 -c 2 -a 0 -i 18 -k AGT
+ -t 2.900000000 -s 0 -d -1 -p cbr -e 24 -c 2 -a 0 -i 19 -k AGT 
- -t 2.900000000 -s 0 -d -1 -p cbr -e 24 -c 2 -a 0 -i 19 -k AGT
h -t 2.900000000 -s 0 -d -1 -p cbr -e 24 -c 2 -a 0 -i 19 -k AGT
+ -t 2.900000000 -s 0 -d 1 -p cbr -e 1020 -c 2 -a 0 -i 18 -k RTR 
- -t 2.900000000 -s 0 -d 1 -p cbr -e 1020 -c 2 -a 0 -i 18 -k RTR
h -t 2.900000000 -s 0 -d 1 -p cbr -e 1020 -c 2 -a 0 -i 18 -k RTR
+ -t 2.900000000 -s 0 -d 1 -p cbr -e 44 -c 2 -a 0 -i 19 -k RTR 
- -t 2.900000000 -s 0 -d 1 -p cbr -e 44 -c 2 -a 0 -i 19 -k RTR
h -t 2.900000000 -s 0 -d 1 -p cbr -e 44 -c 2 -a 0 -i 19 -k RTR
r -t 2.909520890 -s 1 -d 1 -p cbr -e 1020 -c 2 -a 0 -i 18 -k AGT
r -t 2.911578076 -s 1 -d 1 -p cbr -e 44 -c 2 -a 0 -i 19 -k AGT
+ -t 3.000000000 -s 1 -d -1 -p cbr -e 1000 -c 2 -a 0 -i 20 -k AGT 
- -t 3.000000000 -s 1 -d -1 -p cbr -e 1000 -c 2 -a 0 -i 20 -k AGT
h -t 3.000000000 -s 1 -d -1 -p cbr -e 1000 -c 2 -a 0 -i 20 -k AGT
+ -t 3.000000000 -s 1 -d -1 -p cbr -e 24 -c 2 -a 0 -i 21 -k AGT 
- -t 3.000000000 -s 1 -d -1 -p cbr -e 24 -c 2 -a 0 -i 21 -k AGT
h -t 3.000000000 -s 1 -d -1 -p cbr -e 24 -c 2 -a 0 -i 21 -k AGT
v -t 3 -e sim_annotation 3 3 Attacker forwards the data to Attacker 8 which does not forward the data to receiver
+ -t 3.000000000 -s 1 -d -1 -p AODV -e 48 -c 2 -a 0 -i 0 -k RTR 
- -t 3.000000000 -s 1 -d -1 -p AODV -e 48 -c 2 -a 0 -i 0 -k RTR
h -t 3.000000000 -s 1 -d -1 -p AODV -e 48 -c 2 -a 0 -i 0 -k RTR
+ -t 3.000000000 -s 0 -d -1 -p cbr -e 1000 -c 2 -a 0 -i 22 -k AGT 
- -t 3.000000000 -s 0 -d -1 -p cbr -e 1000 -c 2 -a 0 -i 22 -k AGT
h -t 3.000000000 -s 0 -d -1 -p cbr -e 1000 -c 2 -a 0 -i 22 -k AGT
+ -t 3.000000000 -s 0 -d -1 -p cbr -e 24 -c 2 -a 0 -i 23 -k AGT 
- -t 3.000000000 -s 0 -d -1 -p cbr -e 24 -c 2 -a 0 -i 23 -k AGT
h -t 3.000000000 -s 0 -d -1 -p cbr -e 24 -c 2 -a 0 -i 23 -k AGT
+ -t 3.000000000 -s 0 -d 1 -p cbr -e 1020 -c 2 -a 0 -i 22 -k RTR 
- -t 3.000000000 -s 0 -d 1 -p cbr -e 1020 -c 2 -a 0 -i 22 -k RTR
h -t 3.000000000 -s 0 -d 1 -p cbr -e 1020 -c 2 -a 0 -i 22 -k RTR
+ -t 3.000000000 -s 0 -d 1 -p cbr -e 44 -c 2 -a 0 -i 23 -k RTR 
- -t 3.000000000 -s 0 -d 1 -p cbr -e 44 -c 2 -a 0 -i 23 -k RTR
h -t 3.000000000 -s 0 -d 1 -p cbr -e 44 -c 2 -a 0 -i 23 -k RTR
r -t 3.001028218 -s 6 -d -1 -p AODV -e 48 -c 2 -a 0 -i 0 -k RTR
r -t 3.001028265 -s 2 -d -1 -p AODV -e 48 -c 2 -a 0 -i 0 -k RTR
r -t 3.001028297 -s 0 -d -1 -p AODV -e 48 -c 2 -a 0 -i 0 -k RTR
r -t 3.001028554 -s 10 -d -1 -p AODV -e 48 -c 2 -a 0 -i 0 -k RTR
r -t 3.001028575 -s 4 -d -1 -p AODV -e 48 -c 2 -a 0 -i 0 -k RTR
r -t 3.001028600 -s 3 -d -1 -p AODV -e 48 -c 2 -a 0 -i 0 -k RTR
+ -t 3.001028600 -s 3 -d 1 -p AODV -e 44 -c 2 -a 0 -i 0 -k RTR 
- -t 3.001028600 -s 3 -d 1 -p AODV -e 44 -c 2 -a 0 -i 0 -k RTR
h -t 3.001028600 -s 3 -d 1 -p AODV -e 44 -c 2 -a 0 -i 0 -k RTR
r -t 3.001028761 -s 11 -d -1 -p AODV -e 48 -c 2 -a 0 -i 0 -k RTR
+ -t 3.002742399 -s 1 -d 3 -p cbr -e 1020 -c 2 -a 0 -i 20 -k RTR 
- -t 3.002742399 -s 1 -d 3 -p cbr -e 1020 -c 2 -a 0 -i 20 -k RTR
h -t 3.002742399 -s 1 -d 3 -p cbr -e 1020 -c 2 -a 0 -i 20 -k RTR
+ -t 3.006889679 -s 10 -d -1 -p AODV -e 48 -c 2 -a 0 -i 0 -k RTR 
- -t 3.006889679 -s 10 -d -1 -p AODV -e 48 -c 2 -a 0 -i 0 -k RTR
h -t 3.006889679 -s 10 -d -1 -p AODV -e 48 -c 2 -a 0 -i 0 -k RTR
+ -t 3.008308682 -s 2 -d -1 -p AODV -e 48 -c 2 -a 0 -i 0 -k RTR 
- -t 3.008308682 -s 2 -d -1 -p AODV -e 48 -c 2 -a 0 -i 0 -k RTR
h -t 3.008308682 -s 2 -d -1 -p AODV -e 48 -c 2 -a 0 -i 0 -k RTR
+ -t 3.008386980 -s 4 -d -1 -p AODV -e 48 -c 2 -a 0 -i 0 -k RTR 
- -t 3.008386980 -s 4 -d -1 -p AODV -e 48 -c 2 -a 0 -i 0 -k RTR
h -t 3.008386980 -s 4 -d -1 -p AODV -e 48 -c 2 -a 0 -i 0 -k RTR
+ -t 3.009048879 -s 11 -d -1 -p AODV -e 48 -c 2 -a 0 -i 0 -k RTR 
- -t 3.009048879 -s 11 -d -1 -p AODV -e 48 -c 2 -a 0 -i 0 -k RTR
h -t 3.009048879 -s 11 -d -1 -p AODV -e 48 -c 2 -a 0 -i 0 -k RTR
+ -t 3.009774760 -s 0 -d -1 -p AODV -e 48 -c 2 -a 0 -i 0 -k RTR 
- -t 3.009774760 -s 0 -d -1 -p AODV -e 48 -c 2 -a 0 -i 0 -k RTR
h -t 3.009774760 -s 0 -d -1 -p AODV -e 48 -c 2 -a 0 -i 0 -k RTR
+ -t 3.010056694 -s 6 -d -1 -p AODV -e 48 -c 2 -a 0 -i 0 -k RTR 
- -t 3.010056694 -s 6 -d -1 -p AODV -e 48 -c 2 -a 0 -i 0 -k RTR
h -t 3.010056694 -s 6 -d -1 -p AODV -e 48 -c 2 -a 0 -i 0 -k RTR
r -t 3.012427585 -s 1 -d 1 -p cbr -e 1020 -c 2 -a 0 -i 22 -k AGT
+ -t 3.012742399 -s 1 -d 3 -p cbr -e 44 -c 2 -a 0 -i 21 -k RTR 
- -t 3.012742399 -s 1 -d 3 -p cbr -e 44 -c 2 -a 0 -i 21 -k RTR
h -t 3.012742399 -s 1 -d 3 -p cbr -e 44 -c 2 -a 0 -i 21 -k RTR
d -t 3.012742399 -s 1 -d 3 -p cbr -e 1020 -c 2 -a 0 -i 20 -k IFQ
r -t 3.015415929 -s 2 -d -1 -p AODV -e 48 -c 2 -a 0 -i 0 -k RTR
r -t 3.015416020 -s 1 -d -1 -p AODV -e 48 -c 2 -a 0 -i 0 -k RTR
r -t 3.015416435 -s 5 -d -1 -p AODV -e 48 -c 2 -a 0 -i 0 -k RTR
r -t 3.015416589 -s 13 -d -1 -p AODV -e 48 -c 2 -a 0 -i 0 -k RTR
r -t 3.015416773 -s 12 -d -1 -p AODV -e 48 -c 2 -a 0 -i 0 -k RTR
r -t 3.015416810 -s 7 -d -1 -p AODV -e 48 -c 2 -a 0 -i 0 -k RTR
+ -t 3.015744513 -s 13 -d -1 -p AODV -e 48 -c 2 -a 0 -i 0 -k RTR 
- -t 3.015744513 -s 13 -d -1 -p AODV -e 48 -c 2 -a 0 -i 0 -k RTR
h -t 3.015744513 -s 13 -d -1 -p AODV -e 48 -c 2 -a 0 -i 0 -k RTR
r -t 3.016719154 -s 1 -d -1 -p AODV -e 48 -c 2 -a 0 -i 0 -k RTR
r -t 3.016719176 -s 10 -d -1 -p AODV -e 48 -c 2 -a 0 -i 0 -k RTR
r -t 3.016719203 -s 3 -d -1 -p AODV -e 48 -c 2 -a 0 -i 0 -k RTR
r -t 3.016719312 -s 6 -d -1 -p AODV -e 48 -c 2 -a 0 -i 0 -k RTR
r -t 3.016719364 -s 11 -d -1 -p AODV -e 48 -c 2 -a 0 -i 0 -k RTR
r -t 3.016719402 -s 2 -d -1 -p AODV -e 48 -c 2 -a 0 -i 0 -k RTR
r -t 3.016719443 -s 9 -d -1 -p AODV -e 48 -c 2 -a 0 -i 0 -k RTR
r -t 3.016719449 -s 5 -d -1 -p AODV -e 48 -c 2 -a 0 -i 0 -k RTR
r -t 3.016719534 -s 13 -d -1 -p AODV -e 48 -c 2 -a 0 -i 0 -k RTR
r -t 3.016719555 -s 4 -d -1 -p AODV -e 48 -c 2 -a 0 -i 0 -k RTR
r -t 3.018261747 -s 1 -d 1 -p cbr -e 44 -c 2 -a 0 -i 23 -k AGT
+ -t 3.018466700 -s 7 -d -1 -p AODV -e 48 -c 2 -a 0 -i 0 -k RTR 
- -t 3.018466700 -s 7 -d -1 -p AODV -e 48 -c 2 -a 0 -i 0 -k RTR
h -t 3.018466700 -s 7 -d -1 -p AODV -e 48 -c 2 -a 0 -i 0 -k RTR
+ -t 3.019069246 -s 12 -d -1 -p AODV -e 48 -c 2 -a 0 -i 0 -k RTR 
- -t 3.019069246 -s 12 -d -1 -p AODV -e 48 -c 2 -a 0 -i 0 -k RTR
h -t 3.019069246 -s 12 -d -1 -p AODV -e 48 -c 2 -a 0 -i 0 -k RTR
r -t 3.019574508 -s 11 -d -1 -p AODV -e 48 -c 2 -a 0 -i 0 -k RTR
r -t 3.019574583 -s 5 -d -1 -p AODV -e 48 -c 2 -a 0 -i 0 -k RTR
r -t 3.019574620 -s 0 -d -1 -p AODV -e 48 -c 2 -a 0 -i 0 -k RTR
r -t 3.019574662 -s 13 -d -1 -p AODV -e 48 -c 2 -a 0 -i 0 -k RTR
r -t 3.019574785 -s 3 -d -1 -p AODV -e 48 -c 2 -a 0 -i 0 -k RTR
r -t 3.019574856 -s 1 -d -1 -p AODV -e 48 -c 2 -a 0 -i 0 -k RTR
r -t 3.019574890 -s 9 -d -1 -p AODV -e 48 -c 2 -a 0 -i 0 -k RTR
r -t 3.019574922 -s 6 -d -1 -p AODV -e 48 -c 2 -a 0 -i 0 -k RTR
r -t 3.019574923 -s 12 -d -1 -p AODV -e 48 -c 2 -a 0 -i 0 -k RTR
r -t 3.019574973 -s 7 -d -1 -p AODV -e 48 -c 2 -a 0 -i 0 -k RTR
r -t 3.019575041 -s 2 -d -1 -p AODV -e 48 -c 2 -a 0 -i 0 -k RTR
r -t 3.019575127 -s 8 -d -1 -p AODV -e 48 -c 2 -a 0 -i 0 -k RTR
r -t 3.020573168 -s 6 -d -1 -p AODV -e 48 -c 2 -a 0 -i 0 -k RTR
r -t 3.020573306 -s 1 -d -1 -p AODV -e 48 -c 2 -a 0 -i 0 -k RTR
r -t 3.020573586 -s 0 -d -1 -p AODV -e 48 -c 2 -a 0 -i 0 -k RTR
r -t 3.020573738 -s 4 -d -1 -p AODV -e 48 -c 2 -a 0 -i 0 -k RTR
r -t 3.020573782 -s 10 -d -1 -p AODV -e 48 -c 2 -a 0 -i 0 -k RTR
r -t 3.024271503 -s 3 -d 3 -p cbr -e 44 -c 2 -a 0 -i 21 -k AGT
+ -t 3.024535827 -s 5 -d -1 -p AODV -e 48 -c 2 -a 0 -i 0 -k RTR 
- -t 3.024535827 -s 5 -d -1 -p AODV -e 48 -c 2 -a 0 -i 0 -k RTR
h -t 3.024535827 -s 5 -d -1 -p AODV -e 48 -c 2 -a 0 -i 0 -k RTR
+ -t 3.025532017 -s 9 -d -1 -p AODV -e 48 -c 2 -a 0 -i 0 -k RTR 
- -t 3.025532017 -s 9 -d -1 -p AODV -e 48 -c 2 -a 0 -i 0 -k RTR
h -t 3.025532017 -s 9 -d -1 -p AODV -e 48 -c 2 -a 0 -i 0 -k RTR
r -t 3.025593959 -s 5 -d -1 -p AODV -e 48 -c 2 -a 0 -i 0 -k RTR
r -t 3.025594026 -s 11 -d -1 -p AODV -e 48 -c 2 -a 0 -i 0 -k RTR
r -t 3.025594108 -s 12 -d -1 -p AODV -e 48 -c 2 -a 0 -i 0 -k RTR
r -t 3.025594142 -s 10 -d -1 -p AODV -e 48 -c 2 -a 0 -i 0 -k RTR
r -t 3.025594245 -s 7 -d -1 -p AODV -e 48 -c 2 -a 0 -i 0 -k RTR
r -t 3.025594459 -s 0 -d -1 -p AODV -e 48 -c 2 -a 0 -i 0 -k RTR
r -t 3.025594584 -s 3 -d -1 -p AODV -e 48 -c 2 -a 0 -i 0 -k RTR
r -t 3.025594592 -s 9 -d -1 -p AODV -e 48 -c 2 -a 0 -i 0 -k RTR
r -t 3.026532049 -s 11 -d -1 -p AODV -e 48 -c 2 -a 0 -i 0 -k RTR
r -t 3.026532136 -s 13 -d -1 -p AODV -e 48 -c 2 -a 0 -i 0 -k RTR
r -t 3.026532241 -s 10 -d -1 -p AODV -e 48 -c 2 -a 0 -i 0 -k RTR
r -t 3.026532300 -s 12 -d -1 -p AODV -e 48 -c 2 -a 0 -i 0 -k RTR
r -t 3.026532359 -s 7 -d -1 -p AODV -e 48 -c 2 -a 0 -i 0 -k RTR
r -t 3.026532550 -s 0 -d -1 -p AODV -e 48 -c 2 -a 0 -i 0 -k RTR
r -t 3.026532595 -s 9 -d -1 -p AODV -e 48 -c 2 -a 0 -i 0 -k RTR
r -t 3.026532612 -s 3 -d -1 -p AODV -e 48 -c 2 -a 0 -i 0 -k RTR
r -t 3.026532778 -s 8 -d -1 -p AODV -e 48 -c 2 -a 0 -i 0 -k RTR
+ -t 3.027127481 -s 8 -d -1 -p AODV -e 48 -c 2 -a 0 -i 0 -k RTR 
- -t 3.027127481 -s 8 -d -1 -p AODV -e 48 -c 2 -a 0 -i 0 -k RTR
h -t 3.027127481 -s 8 -d -1 -p AODV -e 48 -c 2 -a 0 -i 0 -k RTR
r -t 3.027450849 -s 8 -d -1 -p AODV -e 48 -c 2 -a 0 -i 0 -k RTR
r -t 3.027450875 -s 3 -d -1 -p AODV -e 48 -c 2 -a 0 -i 0 -k RTR
r -t 3.027451165 -s 11 -d -1 -p AODV -e 48 -c 2 -a 0 -i 0 -k RTR
r -t 3.027451181 -s 0 -d -1 -p AODV -e 48 -c 2 -a 0 -i 0 -k RTR
r -t 3.027451184 -s 10 -d -1 -p AODV -e 48 -c 2 -a 0 -i 0 -k RTR
r -t 3.027451232 -s 5 -d -1 -p AODV -e 48 -c 2 -a 0 -i 0 -k RTR
r -t 3.027451360 -s 7 -d -1 -p AODV -e 48 -c 2 -a 0 -i 0 -k RTR
r -t 3.027451406 -s 13 -d -1 -p AODV -e 48 -c 2 -a 0 -i 0 -k RTR
r -t 3.030604095 -s 12 -d -1 -p AODV -e 48 -c 2 -a 0 -i 0 -k RTR
r -t 3.030604299 -s 5 -d -1 -p AODV -e 48 -c 2 -a 0 -i 0 -k RTR
r -t 3.030604362 -s 13 -d -1 -p AODV -e 48 -c 2 -a 0 -i 0 -k RTR
r -t 3.030604363 -s 11 -d -1 -p AODV -e 48 -c 2 -a 0 -i 0 -k RTR
r -t 3.030604570 -s 10 -d -1 -p AODV -e 48 -c 2 -a 0 -i 0 -k RTR
r -t 3.030604663 -s 9 -d -1 -p AODV -e 48 -c 2 -a 0 -i 0 -k RTR
r -t 3.031642292 -s 7 -d -1 -p AODV -e 48 -c 2 -a 0 -i 0 -k RTR
r -t 3.031642422 -s 13 -d -1 -p AODV -e 48 -c 2 -a 0 -i 0 -k RTR
r -t 3.031642437 -s 5 -d -1 -p AODV -e 48 -c 2 -a 0 -i 0 -k RTR
r -t 3.031642523 -s 11 -d -1 -p AODV -e 48 -c 2 -a 0 -i 0 -k RTR
r -t 3.031642717 -s 10 -d -1 -p AODV -e 48 -c 2 -a 0 -i 0 -k RTR
r -t 3.033165327 -s 9 -d -1 -p AODV -e 48 -c 2 -a 0 -i 0 -k RTR
r -t 3.033165589 -s 3 -d -1 -p AODV -e 48 -c 2 -a 0 -i 0 -k RTR
r -t 3.033165841 -s 11 -d -1 -p AODV -e 48 -c 2 -a 0 -i 0 -k RTR
r -t 3.033165891 -s 5 -d -1 -p AODV -e 48 -c 2 -a 0 -i 0 -k RTR
r -t 3.033165898 -s 10 -d -1 -p AODV -e 48 -c 2 -a 0 -i 0 -k RTR
+ -t 3.100000000 -s 1 -d -1 -p cbr -e 1000 -c 2 -a 0 -i 24 -k AGT 
- -t 3.100000000 -s 1 -d -1 -p cbr -e 1000 -c 2 -a 0 -i 24 -k AGT
h -t 3.100000000 -s 1 -d -1 -p cbr -e 1000 -c 2 -a 0 -i 24 -k AGT
+ -t 3.100000000 -s 1 -d -1 -p cbr -e 24 -c 2 -a 0 -i 25 -k AGT 
- -t 3.100000000 -s 1 -d -1 -p cbr -e 24 -c 2 -a 0 -i 25 -k AGT
h -t 3.100000000 -s 1 -d -1 -p cbr -e 24 -c 2 -a 0 -i 25 -k AGT
+ -t 3.100000000 -s 1 -d 3 -p cbr -e 1020 -c 2 -a 0 -i 24 -k RTR 
- -t 3.100000000 -s 1 -d 3 -p cbr -e 1020 -c 2 -a 0 -i 24 -k RTR
h -t 3.100000000 -s 1 -d 3 -p cbr -e 1020 -c 2 -a 0 -i 24 -k RTR
+ -t 3.100000000 -s 1 -d 3 -p cbr -e 44 -c 2 -a 0 -i 25 -k RTR 
- -t 3.100000000 -s 1 -d 3 -p cbr -e 44 -c 2 -a 0 -i 25 -k RTR
h -t 3.100000000 -s 1 -d 3 -p cbr -e 44 -c 2 -a 0 -i 25 -k RTR
+ -t 3.100000000 -s 0 -d -1 -p cbr -e 1000 -c 2 -a 0 -i 26 -k AGT 
- -t 3.100000000 -s 0 -d -1 -p cbr -e 1000 -c 2 -a 0 -i 26 -k AGT
h -t 3.100000000 -s 0 -d -1 -p cbr -e 1000 -c 2 -a 0 -i 26 -k AGT
+ -t 3.100000000 -s 0 -d -1 -p cbr -e 24 -c 2 -a 0 -i 27 -k AGT 
- -t 3.100000000 -s 0 -d -1 -p cbr -e 24 -c 2 -a 0 -i 27 -k AGT
h -t 3.100000000 -s 0 -d -1 -p cbr -e 24 -c 2 -a 0 -i 27 -k AGT
+ -t 3.100000000 -s 0 -d 1 -p cbr -e 1020 -c 2 -a 0 -i 26 -k RTR 
- -t 3.100000000 -s 0 -d 1 -p cbr -e 1020 -c 2 -a 0 -i 26 -k RTR
h -t 3.100000000 -s 0 -d 1 -p cbr -e 1020 -c 2 -a 0 -i 26 -k RTR
+ -t 3.100000000 -s 0 -d 1 -p cbr -e 44 -c 2 -a 0 -i 27 -k RTR 
- -t 3.100000000 -s 0 -d 1 -p cbr -e 44 -c 2 -a 0 -i 27 -k RTR
h -t 3.100000000 -s 0 -d 1 -p cbr -e 44 -c 2 -a 0 -i 27 -k RTR
r -t 3.109421799 -s 3 -d 3 -p cbr -e 1020 -c 2 -a 0 -i 24 -k AGT
r -t 3.119447034 -s 1 -d 1 -p cbr -e 1020 -c 2 -a 0 -i 26 -k AGT
r -t 3.121384833 -s 3 -d 3 -p cbr -e 44 -c 2 -a 0 -i 25 -k AGT
r -t 3.123542069 -s 1 -d 1 -p cbr -e 44 -c 2 -a 0 -i 27 -k AGT
+ -t 3.200000000 -s 1 -d -1 -p cbr -e 1000 -c 2 -a 0 -i 28 -k AGT 
- -t 3.200000000 -s 1 -d -1 -p cbr -e 1000 -c 2 -a 0 -i 28 -k AGT
h -t 3.200000000 -s 1 -d -1 -p cbr -e 1000 -c 2 -a 0 -i 28 -k AGT
+ -t 3.200000000 -s 1 -d -1 -p cbr -e 24 -c 2 -a 0 -i 29 -k AGT 
- -t 3.200000000 -s 1 -d -1 -p cbr -e 24 -c 2 -a 0 -i 29 -k AGT
h -t 3.200000000 -s 1 -d -1 -p cbr -e 24 -c 2 -a 0 -i 29 -k AGT
+ -t 3.200000000 -s 1 -d 3 -p cbr -e 1020 -c 2 -a 0 -i 28 -k RTR 
- -t 3.200000000 -s 1 -d 3 -p cbr -e 1020 -c 2 -a 0 -i 28 -k RTR
h -t 3.200000000 -s 1 -d 3 -p cbr -e 1020 -c 2 -a 0 -i 28 -k RTR
+ -t 3.200000000 -s 1 -d 3 -p cbr -e 44 -c 2 -a 0 -i 29 -k RTR 
- -t 3.200000000 -s 1 -d 3 -p cbr -e 44 -c 2 -a 0 -i 29 -k RTR